ITEM: TIMESTEP
4200000
ITEM: NUMBER OF ATOMS
10479
ITEM: BOX BOUNDS pp pp pp
4.0882558190751794e-01 4.9591174418091420e+01
4.0882558190751794e-01 4.9591174418091420e+01
4.0882558190751794e-01 4.9591174418091420e+01
ITEM: ATOMS id mol type mass q x y z xu yu zu ix iy iz vx vy vz fx fy fz 
4996 313 2 12.01 0.14 2.26977 6.74285 2.54107 -96.0949 6.74285 2.54107 -2 0 0 0.00277794 0.00319786 0.00371184 2.00121 33.0876 10.6234 
5002 313 3 1.008 0.03 2.00041 7.49802 3.32212 -96.3643 7.49802 3.32212 -2 0 0 0.016872 -0.0193289 0.00953149 2.02514 -16.5199 -12.1148 
4995 313 2 12.01 0.14 1.43012 6.91946 1.30587 -96.9346 6.91946 1.30587 -2 0 0 0.00676567 -0.00114942 0.0036717 -8.33074 -7.40734 -36.0009 
4994 313 1 16 -0.4 2.1541 5.41895 2.94422 -96.2106 5.41895 2.94422 -2 0 0 -0.00325326 -0.000511631 -0.00222228 -6.1245 -23.1108 -4.30427 
5008 313 3 1.008 0.03 2.42251 5.71062 4.83619 -95.9422 5.71062 4.83619 -2 0 0 -0.0187036 0.0107688 -0.00420751 -8.40738 7.62203 28.2067 
4998 313 2 12.01 0.11 2.88809 5.13619 4.09449 -95.4766 5.13619 4.09449 -2 0 0 -0.00610822 -0.000351973 -0.00609041 11.1425 -8.11511 -7.80872 
5007 313 3 1.008 0.03 3.90158 5.49799 4.01746 -94.4631 5.49799 4.01746 -2 0 0 -0.00618758 0.0121858 0.00744025 8.36671 -2.13431 -2.33687 
5006 313 3 1.008 0.03 2.90478 4.07481 4.3717 -95.4599 4.07481 4.3717 -2 0 0 -0.0100476 -0.00577581 0.00875228 -3.07205 4.0833 -3.09686 
5000 313 3 1.008 0.03 1.78493 7.86323 0.823173 -96.5798 7.86323 0.823173 -2 0 0 -0.0400915 0.010836 -0.020594 -7.3154 -18.3984 1.14318 
7279 455 3 1.008 0.03 4.32699 8.04916 5.1236 53.5093 8.04916 54.3059 1 0 1 -0.015095 -0.0269767 0.0121376 -3.7103 -14.4304 2.75423 
7278 455 3 1.008 0.03 5.53059 6.72504 5.07458 54.7129 6.72504 54.2569 1 0 1 0.00397542 0.0120675 0.0233415 3.69759 -8.22347 5.94086 
7270 455 2 12.01 0.11 5.33959 7.7436 5.37443 54.5219 7.7436 54.5568 1 0 1 -0.00100231 -0.00502431 0.0062498 -14.1834 25.1373 27.2854 
7280 455 3 1.008 0.03 5.8762 8.41222 4.76616 55.0586 8.41222 53.9485 1 0 1 -0.00920072 -0.0114091 0.0180719 20.7432 9.34577 -17.8291 
3266 205 1 16 -0.4 8.21918 3.86204 3.29309 8.21918 53.0444 101.658 0 1 2 -0.00523356 -0.0110429 -0.00113547 15.5321 -10.099 -12.3412 
5001 313 3 1.008 0.03 3.29676 6.9646 2.25805 -95.0679 6.9646 2.25805 -2 0 0 -0.00588133 -0.0185436 0.00761901 2.79931 -4.23979 1.79742 
3267 205 2 12.01 0.14 7.09076 3.95198 5.46247 7.09076 53.1343 103.827 0 1 2 -0.00792261 0.0014069 0.00825627 -5.89799 -4.79207 -56.7747 
3265 205 1 16 -0.4 7.25764 4.46398 6.73912 7.25764 53.6463 105.104 0 1 2 0.00217529 -0.000602104 -0.000181797 26.9825 31.7011 -6.10856 
3268 205 2 12.01 0.14 8.41901 4.13928 4.65397 8.41901 53.3216 103.019 0 1 2 0.00348038 0.000158206 -0.0060345 -16.5855 -28.4238 14.577 
3272 205 3 1.008 0.03 6.28201 4.45941 4.8294 6.28201 53.6418 103.194 0 1 2 -0.00591292 0.0173438 -0.0171646 20.2966 -14.4359 31.0084 
9087 568 3 1.008 0.03 2.794 3.33258 7.3075 51.9763 101.697 105.672 1 2 2 -0.0257707 0.00276835 -0.0120648 -6.84899 0.747847 -14.1631 
3271 205 3 1.008 0.03 6.84878 2.88276 5.52089 6.84878 52.0651 103.886 0 1 2 0.00952257 -0.0182256 0.00965798 1.18754 3.55541 -3.43771 
9078 568 2 12.01 0.11 1.71967 3.32397 7.04594 50.902 101.689 105.411 1 2 2 0.0019781 0.00122495 0.00285533 -12.2069 4.04895 14.9569 
8462 529 3 1.008 0.03 5.75646 3.41111 2.60962 54.9388 52.5935 100.974 1 1 2 0.0181803 0.0137472 -0.0162181 11.8024 1.02108 -6.27235 
8458 529 3 1.008 0.03 3.35559 0.801288 2.95729 52.5379 49.9836 101.322 1 1 2 -0.0126334 0.0172493 0.0208825 -7.1212 -0.586207 -14.6792 
7933 496 3 1.008 0.03 1.30146 7.47381 5.65744 1.30146 7.47381 54.8398 0 0 1 -0.0098955 -0.0195384 -0.0254784 -13.4931 -7.46945 2.0467 
4999 313 3 1.008 0.03 1.59854 6.02461 0.605851 -96.7662 6.02461 0.605851 -2 0 0 0.0270015 -8.58873e-05 0.0309596 -6.25341 32.8153 19.4526 
8449 529 1 16 -0.4 2.03257 0.468555 4.8294 51.2149 49.6509 103.194 1 1 2 0.00397715 -0.00301645 0.00273553 -30.1752 0.52955 -0.874609 
8248 516 3 1.008 0.03 8.53248 0.643002 1.82105 57.7148 0.643002 -96.5436 1 0 -2 -0.0268408 0.0129796 0.0224698 11.6856 -28.7845 -6.1764 
8454 529 2 12.01 0.11 5.29064 2.44497 2.47082 54.473 51.6273 100.836 1 1 2 0.00287813 0.00226559 -0.0017408 -52.5503 -17.6769 9.01068 
3275 205 3 1.008 0.03 5.40836 3.76659 7.20947 5.40836 52.9489 105.574 0 1 2 -0.00649315 0.00856021 -0.00761868 -0.755291 9.92871 0.360645 
8451 529 2 12.01 0.14 3.39016 0.475657 5.02863 52.5725 49.658 103.393 1 1 2 0.000115163 0.000176896 0.0029264 57.8235 24.7073 3.81619 
8463 529 3 1.008 0.03 5.90179 1.6011 2.17843 55.0841 50.7834 100.543 1 1 2 -0.0151718 -0.0140703 0.00138336 17.5306 8.23598 -10.2053 
2989 187 3 1.008 0.03 0.539762 1.47011 3.03745 49.7221 1.47011 101.402 1 0 2 0.0115572 0.00436923 0.01809 -6.08418 -7.30305 -1.27133 
5752 360 3 1.008 0.03 5.23964 8.34011 1.96776 -93.1251 8.34011 -145.579 -2 0 -3 0.00363544 0.0125631 -0.0147829 8.80132 -16.0433 16.8523 
8450 529 1 16 -0.4 4.74352 2.04309 3.73483 53.9259 51.2254 102.1 1 1 2 0.000261416 -0.00562095 -0.006052 3.9938 5.96675 -4.53011 
7268 455 2 12.01 0.14 6.90567 8.0774 7.1343 56.088 8.0774 56.3166 1 0 1 0.000771197 -0.00181423 0.00399599 29.1212 -9.35907 40.3503 
8464 529 3 1.008 0.03 4.43502 2.53736 1.74249 53.6174 51.7197 100.107 1 1 2 0.000927628 0.0292502 -0.010091 21.794 0.860739 13.2397 
2988 187 3 1.008 0.03 0.922283 3.01815 2.6346 50.1046 3.01815 100.999 1 0 2 0.0132298 0.0335039 -0.00452066 -15.3571 23.2268 5.7572 
8455 529 3 1.008 0.03 3.66983 1.32815 5.67088 52.8522 50.5105 104.036 1 1 2 -0.0128671 0.0102951 -0.0138957 -10.1205 -7.85107 -0.33176 
7266 455 1 16 -0.4 5.56254 8.15128 6.7411 54.7449 8.15128 55.9234 1 0 1 0.00402396 0.000180701 -0.00239746 -13.804 -5.07442 -20.6086 
7925 496 2 12.01 0.11 0.522522 7.49579 6.44228 0.522522 7.49579 55.6246 0 0 1 0.00378997 0.00549963 0.00433124 56.0434 -0.760929 31.1585 
9086 568 3 1.008 0.03 1.44573 4.05559 6.27568 50.6281 102.42 104.64 1 2 2 0.00629149 0.00587235 -0.00908068 7.82191 1.90643 7.85351 
9088 568 3 1.008 0.03 1.41144 2.38061 6.59536 50.5938 100.745 104.96 1 2 2 -0.0335656 0.0295604 0.0125534 4.78746 -4.81622 5.9166 
2987 187 3 1.008 0.03 0.45494 1.99601 1.36537 49.6373 1.99601 99.7301 1 0 2 0.0161698 -0.031542 0.00182387 -1.69525 -1.4771 0.34445 
7273 455 3 1.008 0.03 7.65957 8.58041 6.50936 56.8419 8.58041 55.6917 1 0 1 0.0190291 0.00177516 0.0264276 -12.4238 -12.8322 -14.3339 
8452 529 2 12.01 0.14 4.12201 0.763 3.70176 53.3044 49.9453 102.066 1 1 2 0.00705225 0.00275755 0.00290157 27.2643 -32.0249 -12.6601 
7932 496 3 1.008 0.03 0.574111 6.57154 7.04614 0.574111 6.57154 56.2285 0 0 1 0.0133306 -0.0244671 -0.00340551 -3.82294 5.46793 -9.19707 
7274 455 3 1.008 0.03 7.16029 7.02956 7.3686 56.3426 7.02956 56.5509 1 0 1 0.0166268 -0.0379889 -0.0123476 3.43947 8.11723 -11.7605 
7931 496 3 1.008 0.03 0.934252 8.27016 7.10271 0.934252 8.27016 56.2851 0 0 1 0.0130476 0.010275 -0.0278331 -6.94507 -1.67704 -0.274778 
3274 205 3 1.008 0.03 9.2414 3.5374 4.99534 9.2414 52.7197 103.36 0 1 2 0.0221801 -0.0386118 -0.00631097 -2.99708 -16.8092 14.2231 
3273 205 3 1.008 0.03 8.85654 5.05792 4.83744 8.85654 54.2403 103.202 0 1 2 0.00480371 -0.00615358 0.00591104 4.88758 41.8512 -2.04006 
3280 205 3 1.008 0.03 9.87105 4.74505 2.4941 9.87105 53.9274 100.859 0 1 2 0.0117378 0.00702638 -0.00444566 2.40577 -23.5237 11.0391 
2360 148 3 1.008 0.03 15.8887 2.50208 0.905927 -33.2937 100.867 148.453 -1 2 3 -0.0158959 0.034101 -0.0176355 -9.37895 1.83306 4.86539 
3279 205 3 1.008 0.03 9.34868 3.42605 1.53508 9.34868 52.6084 99.8998 0 1 2 0.0164502 -0.0167741 0.00946907 0.87222 -2.76232 33.0473 
8265 517 3 1.008 0.03 15.273 7.52717 2.72208 113.638 7.52717 2.72208 2 0 0 -0.0171132 0.0113183 -0.0225925 2.75805 14.2056 -11.5876 
3270 205 2 12.01 0.11 9.48899 3.69677 2.62822 9.48899 52.8791 100.993 0 1 2 0.00152659 -0.00318984 -0.0037236 -17.2985 39.8411 -46.0571 
3278 205 3 1.008 0.03 10.2254 3.05103 3.11121 10.2254 52.2334 101.476 0 1 2 -0.00929171 0.00624183 0.0119343 -1.72789 0.750701 -2.09319 
2568 161 3 1.008 0.03 13.4426 0.721539 2.85344 -35.7398 -97.6432 2.85344 -1 -2 0 -0.00880493 -0.00215892 -0.0100715 26.4936 -15.9679 -6.92735 
7786 487 3 1.008 0.03 9.23218 7.74595 1.29071 58.4145 7.74595 1.29071 1 0 0 0.0267628 0.0170818 0.00785062 1.2092 -6.48371 22.6433 
2561 161 1 16 -0.4 13.7354 2.21983 4.27665 -35.447 -96.1449 4.27665 -1 -2 0 0.00461619 0.000201024 0.00287679 -35.8913 -14.6237 9.22157 
8272 517 3 1.008 0.03 15.708 5.34015 3.80644 114.073 5.34015 3.80644 2 0 0 -0.0088877 -0.0376001 0.0146882 -2.2446 7.12035 -12.5346 
1144 72 3 1.008 0.03 13.0845 7.85538 4.6853 13.0845 -41.327 103.05 0 -1 2 -0.00190128 0.0148629 -0.000716874 8.37262 -3.88684 -3.6585 
2563 161 2 12.01 0.14 12.8779 1.34415 3.48138 -36.3044 -97.0206 3.48138 -1 -2 0 0.00234355 -0.0057187 0.00158439 -3.26836 41.3884 -17.888 
7782 487 2 12.01 0.11 11.6653 8.28511 0.662225 60.8476 8.28511 0.662225 1 0 0 -0.0010315 0.00133566 -0.00700882 -10.8364 -51.6894 27.0493 
8260 517 2 12.01 0.14 15.9261 7.27776 1.87272 114.291 7.27776 1.87272 2 0 0 -0.000884718 -0.00213821 0.00297129 -22.186 14.341 -21.0975 
2562 161 1 16 -0.4 10.6739 1.01846 4.44536 -38.5085 -97.3462 4.44536 -1 -2 0 0.00490202 0.00629345 0.00070779 -7.19259 -7.3789 6.82951 
8266 517 3 1.008 0.03 15.2325 6.67356 1.25717 113.597 6.67356 1.25717 2 0 0 0.026516 0.00890876 0.0108432 14.5135 0.279379 2.33957 
2567 161 3 1.008 0.03 12.3571 1.89868 2.65588 -36.8252 -96.466 2.65588 -1 -2 0 -0.00698633 -0.00672497 -0.0263801 4.16937 -3.53528 24.6148 
2575 161 3 1.008 0.03 9.10014 0.724832 5.6885 -40.0822 -97.6399 5.6885 -1 -2 0 -0.00288411 -0.0188411 0.00206837 -2.52611 -1.47124 6.78996 
1148 72 3 1.008 0.03 9.55921 7.74898 4.67401 9.55921 -41.4334 103.039 0 -1 2 -0.00681084 -0.0107266 0.00275709 0.603566 3.51041 -3.22589 
1141 72 2 12.01 0.11 10.6342 7.70737 4.48864 10.6342 -41.475 102.853 0 -1 2 -0.00143504 -0.00565749 -0.00191976 8.6467 8.959 6.57291 
1147 72 3 1.008 0.03 10.892 6.97686 3.74469 10.892 -42.2055 102.109 0 -1 2 0.0126595 0.0250753 0.0134439 -4.23643 -14.3635 -4.49782 
1137 72 1 16 -0.4 11.3553 7.58537 5.68205 11.3553 -41.597 104.047 0 -1 2 0.00916807 -0.0014236 -0.00136647 -0.655842 -17.3967 8.73352 
2366 148 3 1.008 0.03 11.6146 4.59504 0.51488 -37.5678 102.96 148.062 -1 2 3 0.00369682 0.00179931 -0.000823191 12.8881 -14.1995 -7.13538 
1139 72 2 12.01 0.14 12.6983 7.18569 5.44983 12.6983 -41.9967 103.815 0 -1 2 -0.000816204 -0.00691976 0.00103749 -3.49035 40.4548 37.7471 
2565 161 2 12.01 0.11 12.9394 2.97578 5.22613 -36.2429 -95.3889 5.22613 -1 -2 0 -0.00378127 -0.00399689 0.000519771 -4.98978 -13.0766 -19.7143 
8262 517 2 12.01 0.11 16.5273 5.30627 3.07295 114.892 5.30627 3.07295 2 0 0 0.00322452 -0.00452574 -0.00637879 9.29336 -21.605 23.8939 
9119 570 3 1.008 0.03 16.2106 8.43834 4.46546 163.758 -89.9264 53.6478 3 -2 1 -0.0140093 0.00557046 -0.00546563 -8.27431 2.97944 4.89103 
8270 517 3 1.008 0.03 16.3119 4.63611 2.24503 114.677 4.63611 2.24503 2 0 0 -0.0189949 0.0266467 -0.027976 -4.83352 -6.34505 2.74861 
7977 499 3 1.008 0.03 16.1592 1.49505 4.37841 -82.2055 -96.8697 53.5608 -2 -2 1 0.00402525 0.0191846 -0.00637952 -19.8351 -0.408693 8.53914 
8259 517 2 12.01 0.14 16.4644 8.52472 0.979302 114.829 8.52472 0.979302 2 0 0 -0.000161171 0.00118609 0.00101842 22.243 -64.2354 96.057 
2564 161 2 12.01 0.14 11.9342 0.428464 4.23456 -37.2481 -97.9362 4.23456 -1 -2 0 0.00156521 0.00729257 0.00423725 -19.3085 -13.8196 24.5714 
2571 161 3 1.008 0.03 13.5543 3.46476 5.90257 -35.628 -94.8999 5.90257 -1 -2 0 -0.0127507 0.0221793 -0.00565978 27.1987 16.048 19.2378 
2573 161 3 1.008 0.03 12.2672 2.41935 5.89995 -36.9151 -95.9453 5.89995 -1 -2 0 0.0234376 0.0132852 -0.0185354 2.88649 -0.947879 -11.7363 
1140 72 2 12.01 0.14 13.4769 7.45673 6.81268 13.4769 -41.7256 105.177 0 -1 2 0.00700923 0.0034599 0.00881093 -12.9652 3.09909 -31.7674 
7792 487 3 1.008 0.03 11.437 8.27562 1.78308 60.6193 8.27562 1.78308 1 0 0 0.0254606 -0.00239031 -0.0147002 11.2135 6.01403 -35.8792 
2572 161 3 1.008 0.03 12.4168 3.78381 4.72419 -36.7655 -94.5809 4.72419 -1 -2 0 -0.000765166 -0.0250211 -0.0122646 -7.55882 -2.3517 -2.86658 
2359 148 3 1.008 0.03 14.7173 1.1716 0.600157 -34.465 99.5363 148.147 -1 2 3 -0.0226588 0.0168124 -0.0081089 -16.3423 -5.48522 21.4434 
1146 72 3 1.008 0.03 14.5267 7.2732 6.58886 14.5267 -41.9092 104.954 0 -1 2 -0.0101618 -0.00753823 -0.0106853 -0.695528 -12.2089 10.7568 
1143 72 3 1.008 0.03 12.6565 6.18878 5.07815 12.6565 -42.9936 103.443 0 -1 2 -0.00528804 -0.00379484 -0.0132854 10.9663 -19.0195 -0.451427 
7790 487 3 1.008 0.03 12.581 7.74342 0.438574 61.7634 7.74342 0.438574 1 0 0 -0.00218587 -0.00767977 -0.00351269 8.57649 7.28197 7.63169 
1547 97 3 1.008 0.03 16.3934 5.89101 6.36499 65.5758 -43.2913 -42.8174 1 -1 -1 0.0209733 -0.0404704 -0.000374017 -1.99864 -11.0103 5.05478 
8157 510 3 1.008 0.03 9.99079 5.41821 7.34795 9.99079 54.6006 7.34795 0 1 0 0.0196462 -0.00149222 -0.0065032 -6.35469 8.71181 -0.884702 
10318 649 8 19 -0.16 22.9245 1.32573 4.93641 22.9245 1.32573 4.93641 0 0 0 0.00342575 -0.00403978 0.00882937 0.211328 23.3341 -11.5391 
4685 293 3 1.008 0.03 23.4093 1.23047 0.979352 -25.7731 50.4128 50.1617 -1 1 1 0.0150968 0.00665546 0.0170368 -1.80657 -11.4338 -4.73314 
2866 180 1 16 -0.4 20.641 4.40811 0.796974 20.641 102.773 -48.3854 0 2 -1 0.00031285 0.00593702 -0.0044801 16.6802 -4.47937 -22.2512 
4684 293 3 1.008 0.03 24.6829 1.89484 1.70867 -24.4995 51.0772 50.891 -1 1 1 -0.00277552 -0.0126258 0.00982038 19.1645 19.4172 18.154 
10316 649 7 12.01 0.35 23.9909 1.32224 5.71078 23.9909 1.32224 5.71078 0 0 0 -0.00408368 -0.00223751 -0.00245995 -29.7053 -41.3471 74.9922 
8258 517 1 16 -0.4 16.9374 6.5232 2.51579 115.302 6.5232 2.51579 2 0 0 -0.00334891 -0.00137975 -0.00577213 18.0038 17.513 -4.96397 
8271 517 3 1.008 0.03 17.342 4.86134 3.69618 115.707 4.86134 3.69618 2 0 0 0.00968259 -0.0171564 0.00468469 -8.09888 7.51365 -17.881 
7980 499 3 1.008 0.03 19.8932 3.3056 2.97473 -78.4715 -95.0591 52.1571 -2 -2 1 0.00671204 -0.00608053 -0.00476669 6.15374 -16.1842 13.9526 
2868 180 2 12.01 0.14 19.8885 5.56745 1.04474 19.8885 103.932 -48.1376 0 2 -1 0.00243651 -0.00481719 -0.00243565 -24.4298 4.16033 -28.3814 
2865 180 1 16 -0.4 21.8853 6.6076 1.7927 21.8853 104.972 -47.3896 0 2 -1 -0.000936 0.0081231 -0.00127763 10.1832 10.2859 12.648 
2876 180 3 1.008 0.03 22.7757 6.39082 3.61456 22.7757 104.756 -45.5678 0 2 -1 -0.00403347 -0.0126838 0.0012831 9.43562 -1.47943 4.58208 
2875 180 3 1.008 0.03 21.9098 7.8731 3.46711 21.9098 106.238 -45.7152 0 2 -1 -0.00639209 0.0180175 0.0104614 -7.53089 11.9389 5.81401 
2869 180 2 12.01 0.11 22.533 7.19102 2.92725 22.533 105.556 -46.2551 0 2 -1 0.00228965 -0.00640745 -0.00624787 11.702 -8.66882 -22.0756 
2872 180 3 1.008 0.03 20.1058 7.15881 2.33306 20.1058 105.524 -46.8493 0 2 -1 -0.0195463 0.0284678 -0.011748 -26.1471 30.8897 16.1679 
2871 180 3 1.008 0.03 20.6068 5.63626 3.07161 20.6068 104.001 -46.1107 0 2 -1 0.000806865 0.00268308 -4.82064e-05 -5.06367 -1.87772 7.30715 
2867 180 2 12.01 0.14 20.584 6.25686 2.18641 20.584 104.622 -46.9959 0 2 -1 0.00230559 0.000911552 0.00186742 8.43413 -25.3735 -11.1159 
7971 499 2 12.01 0.14 18.218 1.33116 4.60865 -80.1467 -97.0335 53.791 -2 -2 1 -0.000599887 -0.000382132 -0.00556709 -7.93565 -7.28773 27.7718 
7973 499 2 12.01 0.11 19.9981 2.23889 3.29041 -78.3666 -96.1258 52.4728 -2 -2 1 0.00078588 0.000354574 -0.00906308 15.5635 28.8641 -2.73532 
7969 499 1 16 -0.4 18.7013 1.74878 3.34461 -79.6634 -96.6159 52.527 -2 -2 1 0.00245197 -0.000994513 0.000151263 -16.8889 -9.47645 1.32635 
2873 180 3 1.008 0.03 18.8313 5.24687 1.13469 18.8313 103.612 -48.0477 0 2 -1 0.0084461 -0.0117303 -0.0244198 11.9485 7.4963 15.6481 
7972 499 2 12.01 0.14 16.8373 0.663986 4.39597 -81.5274 -97.7007 53.5783 -2 -2 1 -2.108e-06 0.0113453 0.00396585 57.8382 28.8931 -51.8413 
14 1 3 1.008 0.03 20.5876 4.56803 5.42918 69.7699 53.7504 5.42918 1 1 0 0.00307098 -0.0350072 0.00932175 -32.3819 -8.1808 -12.032 
2877 180 3 1.008 0.03 23.4217 7.74459 2.58295 23.4217 106.109 -46.5994 0 2 -1 0.0067483 -0.028214 -0.0249277 -3.55384 -8.92679 6.78564 
4955 310 3 1.008 0.03 24.7855 6.00222 0.748024 73.9678 6.00222 0.748024 1 0 0 -0.000470813 0.0233442 0.0154524 5.3534 -9.13842 14.2808 
7979 499 3 1.008 0.03 20.4214 1.7645 2.39973 -77.9433 -96.6002 51.5821 -2 -2 1 -0.0183481 0.0210003 -0.000628621 10.274 1.73708 9.3709 
15 1 3 1.008 0.03 22.1673 4.50667 5.8291 71.3497 53.689 5.8291 1 1 0 0.020095 -0.00821766 -0.00992214 -22.866 9.97811 25.6993 
6 1 2 12.01 0.11 21.1433 4.59712 6.31886 70.3257 53.7795 6.31886 1 1 0 0.000274722 -0.00129688 0.00542361 58.9679 7.91285 19.2327 
16 1 3 1.008 0.03 21.0655 3.76543 7.03898 70.2479 52.9478 7.03898 1 1 0 0.0110857 -0.018287 0.0138186 -8.31025 -3.73939 -17.5342 
10317 649 8 19 -0.16 23.5594 1.64183 6.97175 23.5594 1.64183 6.97175 0 0 0 -0.000472616 -0.000975526 -0.00650116 7.06249 -15.0907 -38.82 
7976 499 3 1.008 0.03 18.0544 2.14395 5.3329 -80.3103 -96.2207 54.5153 -2 -2 1 -0.0216672 -0.0385631 0.0313482 7.21734 0.857165 -9.55633 
4677 293 2 12.01 0.11 24.4119 0.962702 1.31155 -24.7704 50.1451 50.4939 -1 1 1 0.00385204 0.0012944 0.000441123 -38.3001 -23.9227 5.30312 
7981 499 3 1.008 0.03 20.6444 2.15026 4.21355 -77.7203 -96.2144 53.3959 -2 -2 1 -0.00939497 0.0157732 0.0113432 -16.1519 -1.76526 -21.888 
11 1 3 1.008 0.03 21.8968 8.20074 6.36017 71.0792 57.3831 6.36017 1 1 0 0.00510545 -0.00657597 0.00253852 -1.53411 -1.97482 -5.48371 
2 1 1 16 -0.4 20.9068 5.79187 7.0869 70.0891 54.9742 7.0869 1 1 0 0.00659121 -0.00317794 0.00140742 1.2892 -1.44118 -22.5283 
1548 97 3 1.008 0.03 17.3581 7.16345 7.04058 66.5404 -42.0189 -42.1418 1 -1 -1 0.0230467 0.0263295 -0.00599524 -4.35654 -18.6358 3.83799 
10319 649 8 19 -0.16 24.8393 2.24604 5.43443 24.8393 2.24604 5.43443 0 0 0 0.00219994 -0.00138357 -0.00930489 11.4468 28.6466 -27.1748 
7975 499 3 1.008 0.03 18.9066 0.640945 5.12801 -79.4581 -97.7238 54.3104 -2 -2 1 0.0180879 -0.00120472 -0.0222789 -3.07463 2.85637 -11.3455 
1541 97 2 12.01 0.11 16.965 6.14015 7.25971 66.1474 -43.0422 -41.9226 1 -1 -1 0.000300598 -0.00456852 -0.0030519 20.819 41.7784 11.8689 
8230 515 2 12.01 0.11 1.0155 16.1571 2.26325 99.3802 16.1571 -46.9191 2 0 -1 0.00650298 -0.0005695 -0.00596978 -21.7506 -14.8642 20.8673 
8234 515 3 1.008 0.03 1.57317 15.8166 4.60237 99.9379 15.8166 -44.58 2 0 -1 0.00683716 -0.0191762 -0.00843417 -11.4066 12.2985 22.5488 
4761 298 3 1.008 0.03 7.04791 12.8373 6.39158 56.2303 12.8373 6.39158 1 0 0 9.12319e-05 0.0408362 -0.00417378 -24.5356 -8.60678 -5.47208 
3127 196 3 1.008 0.03 0.620031 12.7491 2.29244 49.8024 -36.4333 51.4748 1 -1 1 0.00681896 -0.00778548 -0.0155415 -5.6857 0.880928 4.8803 
5682 356 1 16 -0.4 7.89148 15.3908 1.65288 57.0738 162.938 100.018 1 3 2 0.00288705 -0.00351398 -0.00201984 -46.5906 24.0722 35.1431 
7351 460 3 1.008 0.03 4.48457 14.6162 1.11276 4.48457 -132.931 197.842 0 -3 4 0.0146755 -0.0246441 -0.000102573 2.81046 17.3228 -5.71835 
6269 392 3 1.008 0.03 5.43379 11.3327 6.71596 5.43379 11.3327 105.081 0 0 2 0.0167772 0.00251811 0.00742258 -30.8283 0.047798 2.66948 
5757 360 3 1.008 0.03 3.43534 9.64338 4.08161 -94.9294 9.64338 -143.465 -2 0 -3 -0.0209032 0.0178055 -0.000631449 6.76646 -9.06485 10.5644 
7349 460 2 12.01 0.11 4.09783 14.0946 3.54689 4.09783 -133.452 200.276 0 -3 4 0.00691796 0.00101355 0.0048901 45.4201 1.77412 23.2322 
7357 460 3 1.008 0.03 5.14836 13.7429 3.85359 5.14836 -133.804 200.583 0 -3 4 -0.0117168 0.00723868 0.0188986 -35.9231 8.58239 -20.5468 
7352 460 3 1.008 0.03 5.04767 12.9608 1.31925 5.04767 -134.586 198.049 0 -3 4 0.0252587 0.0127836 -0.00225366 4.47258 6.18311 -0.0250405 
7347 460 2 12.01 0.14 4.17381 13.6112 1.28038 4.17381 -133.936 198.01 0 -3 4 -0.00181108 0.000352232 -0.00402028 -11.3028 -48.383 -1.86155 
5747 360 2 12.01 0.14 5.04911 9.36474 1.77311 -93.3156 9.36474 -145.774 -2 0 -3 -0.00459095 0.0061844 -0.00748973 -25.0596 23.543 -34.3779 
7345 460 1 16 -0.4 3.47931 13.408 2.49788 3.47931 -134.139 199.227 0 -3 4 0.00523619 0.00319355 0.0031606 4.06654 5.50907 -4.92061 
5751 360 3 1.008 0.03 5.68342 10.0463 2.37287 -92.6813 10.0463 -145.174 -2 0 -3 0.00413237 0.0112799 -0.0238808 -9.24655 -10.4916 -0.437912 
5745 360 1 16 -0.4 3.58385 9.53987 1.94631 -94.7808 9.53987 -145.601 -2 0 -3 0.00798049 0.00356717 0.00129889 35.7196 10.3487 22.9022 
7356 460 3 1.008 0.03 3.51655 13.8977 4.43557 3.51655 -133.649 201.165 0 -3 4 -0.0112106 -0.00563527 -0.0209165 -6.86421 6.40048 5.31195 
4768 298 3 1.008 0.03 8.01151 10.9312 3.30328 57.1939 10.9312 3.30328 1 0 0 0.0257108 0.0133397 0.00180257 -3.4921 3.4542 20.3893 
5749 360 2 12.01 0.11 3.22245 10.2016 3.20363 -95.1422 10.2016 -144.343 -2 0 -3 -0.000782591 0.00369469 -0.00172292 -8.81625 -14.3595 -48.5234 
5755 360 3 1.008 0.03 3.741 11.1381 3.23993 -94.6237 11.1381 -144.307 -2 0 -3 -0.0078127 0.00522072 0.00718123 2.24577 10.5944 5.73298 
5756 360 3 1.008 0.03 2.1348 10.3591 3.19467 -96.2299 10.3591 -144.352 -2 0 -3 0.0214343 0.00590686 -0.013048 8.12953 3.35572 1.55964 
3132 196 3 1.008 0.03 1.03817 13.4525 4.50972 50.2205 -35.7298 53.6921 1 -1 1 -0.0195202 -0.00207447 -0.0114346 29.406 2.06897 -21.2099 
6257 392 1 16 -0.4 3.6066 12.4059 7.17912 3.6066 12.4059 105.544 0 0 2 -0.00118022 -0.000928882 -0.000116567 3.33454 -6.11496 -9.39232 
8238 515 3 1.008 0.03 1.49558 15.1924 2.37592 99.8603 15.1924 -46.8064 2 0 -1 0.0221875 0.00447231 -0.0029009 2.97557 -3.17625 0.143122 
8239 515 3 1.008 0.03 0.463587 16.1307 1.35348 98.8283 16.1307 -47.8289 2 0 -1 0.00964497 0.0203153 0.00530957 -13.5849 -3.41261 -11.835 
4756 298 2 12.01 0.14 8.02085 12.8728 5.97506 57.2032 12.8728 5.97506 1 0 0 -0.00453086 0.00435984 -0.00759616 21.1575 12.931 -11.8654 
4754 298 1 16 -0.4 8.47232 11.8208 5.15986 57.6547 11.8208 5.15986 1 0 0 -0.00286136 0.00337748 0.0046572 -13.7561 -1.68436 -12.0769 
4758 298 2 12.01 0.11 7.51917 11.4551 4.15902 56.7015 11.4551 4.15902 1 0 0 0.00198126 0.00083128 0.00609253 -32.9232 -25.2306 -26.91 
4767 298 3 1.008 0.03 6.80153 12.1348 3.60984 55.9839 12.1348 3.60984 1 0 0 -0.0105533 -0.000843229 -0.00431358 29.2152 4.59167 24.8699 
4762 298 3 1.008 0.03 8.03199 13.7285 5.22056 57.2143 13.7285 5.22056 1 0 0 -0.0138587 0.0538459 0.0122912 7.57384 -12.1919 37.2557 
4766 298 3 1.008 0.03 6.79703 10.7593 4.644 55.9794 10.7593 4.644 1 0 0 0.0128726 0.0147088 0.000858834 14.5666 5.50982 -7.28759 
8228 515 2 12.01 0.14 0.886547 16.6917 4.55261 99.2512 16.6917 -44.6297 2 0 -1 -0.00244143 -0.000314453 -0.0015909 28.9937 -24.1628 -31.7983 
7355 460 3 1.008 0.03 4.16345 15.1795 3.33491 4.16345 -132.368 200.064 0 -3 4 -0.0203206 0.0125128 -0.0207233 -4.80864 -9.69002 5.93266 
5694 356 3 1.008 0.03 6.49325 16.4627 2.75726 55.6756 164.01 101.122 1 3 2 -0.0026433 -0.00497172 0.00554481 -12.3349 1.99353 0.987604 
5686 356 2 12.01 0.11 7.4524 16.6299 2.30485 56.6347 164.177 100.67 1 3 2 -0.00302336 -0.00323408 0.00333168 64.9363 -45.6521 50.6848 
8235 515 3 1.008 0.03 1.27063 14.8216 6.63625 99.6353 14.8216 -42.5461 2 0 -1 0.00595321 0.00539189 -0.0134145 -26.5733 5.37917 5.63692 
6261 392 2 12.01 0.11 4.44646 11.2734 7.26064 4.44646 11.2734 105.625 0 0 2 -0.0014426 0.00013382 -0.00838234 42.1574 24.5745 22.1035 
6268 392 3 1.008 0.03 3.84342 10.4746 6.94637 3.84342 10.4746 105.311 0 0 2 -0.012931 -0.0106764 0.023895 -5.07641 -30.2342 -9.49324 
6427 402 3 1.008 0.03 3.88911 16.1544 6.90791 53.0715 -82.2103 6.90791 1 -2 0 0.00262653 -0.000668237 0.00106922 -2.00697 9.42165 7.88253 
7354 460 3 1.008 0.03 2.66239 12.1944 0.463544 2.66239 -135.353 197.193 0 -3 4 -0.0071354 -0.00627104 0.0180362 12.1929 -32.6949 6.7638 
5684 356 2 12.01 0.14 9.16809 15.4938 1.21175 58.3504 163.041 99.5764 1 3 2 0.00959435 0.00381416 -0.0021121 42.8505 -19.9555 3.15668 
8264 517 3 1.008 0.03 15.6557 9.16208 0.813547 114.02 9.16208 0.813547 2 0 0 0.00632548 0.00228684 0.0159303 -22.6518 17.201 -26.8678 
1149 72 3 1.008 0.03 11.052 8.62574 4.11442 11.052 -40.5566 102.479 0 -1 2 0.030292 -0.0309793 -0.0202591 -12.6652 13.6147 -9.88304 
4755 298 2 12.01 0.14 8.93032 12.8545 7.24401 58.1127 12.8545 7.24401 1 0 0 -0.00164685 0.00184655 0.000175501 20.1341 55.163 -45.9791 
9114 570 3 1.008 0.03 14.6466 10.5667 4.46386 162.194 -87.798 53.6462 3 -2 1 -0.00744739 0.0002807 -0.0330011 30.721 4.81502 15.5859 
5681 356 1 16 -0.4 11.356 14.6084 1.52875 60.5383 162.155 99.8935 1 3 2 0.000654549 -0.00529006 0.00502229 11.1617 -7.79377 23.6199 
5688 356 3 1.008 0.03 10.447 15.834 2.98926 59.6293 163.381 101.354 1 3 2 -0.016963 -0.00354648 0.00563097 3.31114 2.64991 -3.09772 
5687 356 3 1.008 0.03 9.87732 14.1616 2.85315 59.0597 161.709 101.218 1 3 2 0.0053031 -0.0149837 0.00469471 4.26827 19.052 -13.0076 
9113 570 3 1.008 0.03 15.431 11.1347 5.98431 162.978 -87.23 55.1667 3 -2 1 -0.0164316 -0.00367869 -0.00490381 13.1643 -8.2098 -13.6675 
9108 570 2 12.01 0.14 15.5693 11.0901 4.87991 163.116 -87.2746 54.0623 3 -2 1 -0.00957267 -0.00238648 -0.000283456 -27.8224 -22.1742 -11.7765 
5693 356 3 1.008 0.03 12.2354 14.0763 3.49096 61.4178 161.623 101.856 1 3 2 -0.011426 -0.00575264 -0.00794765 -4.23993 2.41603 -14.8293 
9107 570 2 12.01 0.14 15.3923 12.4761 4.32456 162.939 -85.8886 53.5069 3 -2 1 -0.0012129 0.00196311 0.00115131 48.7204 47.4764 22.2893 
9105 570 1 16 -0.4 15.8678 13.5888 5.13918 163.415 -84.7759 54.3215 3 -2 1 -0.0016745 0.00510622 -0.00364789 4.00531 -20.5723 11.9184 
5691 356 3 1.008 0.03 13.0165 13.5564 1.96109 62.1989 161.103 100.326 1 3 2 -0.0121844 -0.00928382 0.000878575 7.24179 -6.906 1.58054 
9111 570 3 1.008 0.03 14.3908 12.7259 4.27519 161.938 -85.6388 53.4575 3 -2 1 0.0184566 0.00905975 0.00885474 -39.3467 1.17211 -8.72415 
9112 570 3 1.008 0.03 15.8411 12.6053 3.36732 163.388 -85.7594 52.5497 3 -2 1 -0.0237581 -0.011449 0.00699686 2.07738 -3.66645 -19.3674 
5683 356 2 12.01 0.14 10.2423 15.0474 2.26202 59.4247 162.594 100.627 1 3 2 -0.00100252 -0.000334842 0.00279754 -32.9711 -11.7647 0.37776 
5685 356 2 12.01 0.11 12.437 14.3359 2.42889 61.6194 161.883 100.794 1 3 2 -0.000864063 0.000810596 0.00548449 -6.78886 5.7665 -15.725 
5692 356 3 1.008 0.03 13.0192 15.2422 2.36256 62.2016 162.789 100.727 1 3 2 0.0150062 -0.0128634 -0.00203483 9.14165 4.0603 9.09197 
8334 521 3 1.008 0.03 13.7647 15.4149 5.69028 112.129 64.5973 54.8726 2 1 1 0.00515309 -0.00473765 -0.000652074 10.801 -15.0732 23.9772 
8335 521 3 1.008 0.03 12.1122 15.6697 5.47804 110.477 64.852 54.6604 2 1 1 -0.00360801 -0.0102691 0.0139718 -42.0056 -34.7439 -28.707 
8828 552 3 1.008 0.03 15.987 16.2989 4.41844 15.987 114.664 102.783 0 2 2 -0.0284319 0.0208394 -0.000473113 -9.22112 -8.93787 -0.204113 
4760 298 3 1.008 0.03 9.98241 12.6775 6.91208 59.1648 12.6775 6.91208 1 0 0 -0.0151159 0.00781198 0.000699341 -15.0884 -2.85785 12.1745 
9106 570 1 16 -0.4 16.7623 10.4891 4.29887 164.309 -87.8756 53.4812 3 -2 1 0.0113095 -0.000241188 -0.00173725 -13.3569 -13.3681 24.2651 
8333 521 3 1.008 0.03 13.3438 12.572 7.23939 111.709 61.7543 56.4217 2 1 1 -0.00702815 0.0136672 -0.00611269 10.321 15.1375 14.6519 
1138 72 1 16 -0.4 13.4529 8.87891 7.03222 13.4529 -40.3034 105.397 0 -1 2 -0.00477146 -0.00512561 -0.000641026 -9.48397 -1.82853 8.1351 
8824 552 3 1.008 0.03 15.9371 16.7606 6.70595 15.9371 115.125 105.071 0 2 2 -0.0222238 -0.0124014 0.010618 -4.74058 2.16581 -10.7099 
8326 521 2 12.01 0.11 13.0103 16.1335 5.50576 111.375 65.3158 54.6881 2 1 1 0.00141841 -0.000579281 -0.00378458 32.3472 6.0887 -4.70748 
8336 521 3 1.008 0.03 13.4106 16.4709 4.57635 111.775 65.6532 53.7587 2 1 1 -0.000846172 0.00433525 0.0444404 -11.5064 17.385 -16.6983 
8055 504 3 1.008 0.03 15.7153 12.9013 0.647162 114.08 62.0836 99.0119 2 1 2 -0.0269954 -0.0165344 0.0108987 18.8222 -8.38712 -18.2435 
5689 356 3 1.008 0.03 9.35238 16.4089 0.729118 58.5347 163.956 99.0938 1 3 2 0.00476053 -0.0205554 0.0226457 9.37325 28.0686 -4.10668 
8329 521 3 1.008 0.03 11.0712 16.1837 7.30891 109.436 65.3661 56.4913 2 1 1 0.000754789 -0.0191782 -0.00863086 8.52348 -0.372581 7.38772 
3022 189 3 1.008 0.03 24.9325 15.947 7.04687 24.9325 -33.2353 56.2292 0 -1 1 0.0134284 -0.00477628 -0.0180137 -4.99299 -1.4854 8.46554 
12 1 3 1.008 0.03 21.0927 9.50251 7.34456 70.275 58.6849 7.34456 1 1 0 -0.0103287 -0.0168089 0.0108707 11.6345 -7.85759 -7.84249 
9828 616 7 12.01 0.35 22.2329 10.2304 0.708088 71.4153 10.2304 0.708088 1 0 0 0.00194304 -0.00197464 0.00656752 -41.9505 11.7107 52.8419 
10153 638 8 19 -0.16 24.9761 9.41609 2.74627 24.9761 9.41609 51.9286 0 0 1 0.00207815 -0.000441988 1.50686e-05 32.9991 13.4351 -16.3303 
8057 504 3 1.008 0.03 18.4626 12.2114 0.602686 116.827 61.3938 98.9674 2 1 2 -0.000595149 -0.0334558 -0.00735049 3.36178 -26.3749 17.3495 
8050 504 1 16 -0.4 17.7621 14.1345 0.920822 116.127 63.3169 99.2855 2 1 2 -0.000274327 -0.00126186 0.000261474 19.1385 -10.6213 12.843 
8064 504 3 1.008 0.03 19.4787 13.5486 1.92743 117.843 62.7309 100.292 2 1 2 -0.00310546 -0.00547662 -0.00181011 1.78635 19.0979 8.20287 
3012 189 2 12.01 0.14 22.8048 14.3398 7.13894 22.8048 -34.8425 56.3213 0 -1 1 0.00124276 -0.00195783 0.000686453 0.0396386 -8.81029 -39.2443 
5 1 2 12.01 0.11 22.0372 8.95724 7.12184 71.2195 58.1396 7.12184 1 1 0 0.00415132 -0.00143048 0.0119241 9.04015 14.7536 26.6839 
9110 570 2 12.01 0.11 16.9732 9.13775 4.78524 164.52 -89.2269 53.9676 3 -2 1 0.000355622 0.00668344 0.00456024 12.0217 13.9015 -53.6968 
9120 570 3 1.008 0.03 17.9042 8.70074 4.37254 165.451 -89.664 53.5549 3 -2 1 -0.004272 -0.0177087 0.00908441 -7.52695 9.94884 5.05731 
8263 517 3 1.008 0.03 17.0914 9.07895 1.71924 115.456 9.07895 1.71924 2 0 0 -0.010947 0.00947222 -0.0153205 -2.72432 -5.52711 -19.8087 
8419 527 2 12.01 0.14 24.3174 11.6186 4.83643 -74.0473 60.801 54.0188 -2 1 1 -0.00307386 -0.000534957 -0.00120604 -51.2669 20.0364 3.08645 
8062 504 3 1.008 0.03 19.6532 14.7766 0.595947 118.018 63.959 98.9606 2 1 2 0.00397184 -0.00815989 0.0269375 -5.50393 -5.36464 24.8749 
9831 616 8 19 -0.16 23.3134 10.8106 1.20205 72.4957 10.8106 1.20205 1 0 0 0.00186296 -0.00791248 -0.00711542 5.05343 2.03909 -9.65783 