ITEM: TIMESTEP
3650000
ITEM: NUMBER OF ATOMS
10479
ITEM: BOX BOUNDS pp pp pp
4.0882558190751794e-01 4.9591174418091420e+01
4.0882558190751794e-01 4.9591174418091420e+01
4.0882558190751794e-01 4.9591174418091420e+01
ITEM: ATOMS id mol type mass q x y z xu yu zu ix iy iz vx vy vz fx fy fz 
2252 141 3 1.008 0.03 1.76227 4.92353 4.09763 1.76227 4.92353 53.28 0 0 1 -0.000717989 0.00412784 -0.0110628 23.2599 -21.7637 -2.66665 
605 38 3 1.008 0.03 7.76834 4.72356 4.66471 7.76834 53.9059 4.66471 0 1 0 0.0294785 -0.0252098 -0.0298166 5.03138 8.91194 7.8705 
603 38 3 1.008 0.03 7.86643 6.51811 4.54041 7.86643 55.7005 4.54041 0 1 0 0.00235626 0.0165823 0.0103227 7.48124 -24.44 22.9073 
5181 324 3 1.008 0.03 4.15823 5.40896 5.1119 4.15823 5.40896 54.2943 0 0 1 -0.00973378 0.0044914 0.00119852 12.8694 3.82666 -13.0446 
597 38 2 12.01 0.11 8.03167 5.63275 5.24057 8.03167 54.8151 5.24057 0 1 0 0.00510316 -0.00253016 0.00509936 -5.77142 13.891 -22.7455 
6873 430 3 1.008 0.03 6.24754 7.61811 2.69116 55.4299 7.61811 2.69116 1 0 0 0.00838718 0.029712 0.00586173 -22.1468 -13.8693 -12.5346 
5169 324 1 16 -0.4 4.8874 3.45799 5.28338 4.8874 3.45799 54.4657 0 0 1 -0.00239636 0.000978836 -0.000120234 -10.4936 20.5017 -3.36088 
6867 430 2 12.01 0.14 7.39071 7.4473 1.06859 56.5731 7.4473 1.06859 1 0 0 0.00317206 0.00420216 -0.000539691 22.6673 -9.3045 31.1282 
6865 430 1 16 -0.4 8.25245 8.36728 1.73516 57.4348 8.36728 1.73516 1 0 0 -0.00713201 -0.00825868 -0.00298218 28.4773 16.8963 -17.6656 
8157 510 3 1.008 0.03 3.38705 4.88183 6.79273 3.38705 54.0642 6.79273 0 1 0 0.00596199 0.00235214 -0.0100661 -6.93678 -6.03935 20.8116 
4427 277 3 1.008 0.03 3.8383 7.52995 4.83247 102.203 7.52995 103.197 2 0 2 -0.0124445 -0.0032625 0.0174641 -10.1267 43.9924 -9.46852 
8152 510 3 1.008 0.03 2.22445 7.02174 6.68261 2.22445 56.2041 6.68261 0 1 0 0.00590726 0.0114603 -0.0552022 -4.60765 -8.42387 31.9397 
593 38 1 16 -0.4 7.19695 5.74128 6.39342 7.19695 54.9236 6.39342 0 1 0 0.00328257 0.00118544 0.00264935 31.4982 6.54185 -4.70971 
5173 324 2 12.01 0.11 4.69626 4.66295 4.52391 4.69626 4.66295 53.7063 0 0 1 -0.00346455 -0.00859417 -0.000351138 8.16868 -17.2107 28.271 
6868 430 2 12.01 0.14 5.9954 7.70229 1.60906 55.1778 7.70229 1.60906 1 0 0 0.000570378 -0.00610647 0.00841566 52.4104 42.0818 54.3412 
7175 449 3 1.008 0.03 2.06426 1.59629 5.64108 2.06426 50.7786 5.64108 0 1 0 -0.0231066 -0.0085891 0.0156414 -7.17421 -2.89461 3.00027 
2245 141 2 12.01 0.11 1.03565 5.67186 4.13859 1.03565 5.67186 53.3209 0 0 1 -0.00546271 -0.000837039 -0.00502196 -7.4252 76.012 -1.91588 
6866 430 1 16 -0.4 5.05999 6.79683 1.15148 54.2423 6.79683 1.15148 1 0 0 0.00880165 0.00328573 0.0018916 -0.142278 -27.9294 18.06 
5171 324 2 12.01 0.14 5.31982 2.39099 4.48503 5.31982 2.39099 53.6674 0 0 1 -0.0114152 -0.00390716 -0.00640548 36.0078 -45.4447 17.7988 
7171 449 2 12.01 0.14 1.74179 0.547353 5.71291 1.74179 49.7297 5.71291 0 1 0 0.00607158 -0.00192834 -0.00251261 7.92327 19.6304 6.51595 
2253 141 3 1.008 0.03 1.47682 6.70268 3.87358 1.47682 6.70268 53.0559 0 0 1 -0.0223772 -0.00296568 0.00430145 -14.5546 -41.3057 -0.655246 
5179 324 3 1.008 0.03 5.63318 5.01896 4.15068 5.63318 5.01896 53.333 0 0 1 -0.00924515 -0.0292782 -0.012356 9.25951 10.5267 -0.450581 
5176 324 3 1.008 0.03 6.27149 2.62153 3.95187 6.27149 2.62153 53.1342 0 0 1 -0.0118755 0.00320541 0.0153552 -12.7374 -4.13655 9.45168 
10130 636 8 19 -0.16 0.483386 8.35382 0.934062 0.483386 8.35382 50.1164 0 0 1 0.00216353 0.00395566 0.00460801 -0.942273 2.52067 -26.2846 
7697 482 1 16 -0.4 6.62631 0.424578 2.12555 154.173 49.6069 100.49 3 1 2 0.00492214 0.00360899 -0.00861568 6.3538 -6.98508 32.3032 
5177 324 3 1.008 0.03 4.61525 1.10637 6.09752 4.61525 1.10637 55.2799 0 0 1 0.00538002 0.0140523 0.00494899 -10.1122 -10.3973 4.19659 
6872 430 3 1.008 0.03 7.8896 6.51766 1.40839 57.0719 6.51766 1.40839 1 0 0 -0.00780694 0.00682122 -0.00310522 -21.9572 -1.76002 -9.99189 
5180 324 3 1.008 0.03 4.12916 4.47662 3.67319 4.12916 4.47662 52.8555 0 0 1 -0.00120859 -0.0343891 -0.0163433 -22.2476 -6.43249 -26.3076 
7184 449 3 1.008 0.03 0.620618 1.20395 1.42422 0.620618 50.3863 1.42422 0 1 0 0.0113068 0.00726986 0.00735357 1.82058 0.241275 6.81809 
1500 94 3 1.008 0.03 2.89721 3.60728 1.49766 101.262 101.972 50.68 2 2 1 0.0120739 -0.0143727 0.0223843 -18.2125 7.86276 11.007 
7170 449 1 16 -0.4 1.0072 0.946378 3.47303 1.0072 50.1287 3.47303 0 1 0 0.00269986 0.00217957 0.00607127 15.0974 -19.1505 8.4009 
7703 482 3 1.008 0.03 6.72466 1.58057 0.457637 154.272 50.7629 98.8223 3 1 2 0.0149801 0.000843657 0.0159406 -0.298197 2.4793 4.6759 
1493 94 2 12.01 0.11 3.7179 3.26884 0.922691 102.083 101.634 50.105 2 2 1 -0.00211508 -0.00307452 0.00190161 54.5948 13.5964 5.80735 
2251 141 3 1.008 0.03 0.740443 5.83988 5.16373 0.740443 5.83988 54.3461 0 0 1 0.0259571 0.0160595 0.00442559 4.07391 -4.93177 8.41152 
5175 324 3 1.008 0.03 4.59816 2.10144 3.73578 4.59816 2.10144 52.9181 0 0 1 -0.013245 0.0222467 0.0254717 -7.88667 6.80508 -4.82788 
5172 324 2 12.01 0.14 5.45177 1.09418 5.4238 5.45177 1.09418 54.6061 0 0 1 -0.00432014 -0.00269323 0.00748183 11.1252 43.117 -12.7526 
1501 94 3 1.008 0.03 4.4933 2.84518 1.61657 102.858 101.21 50.7989 2 2 1 0.00982606 -0.0107492 0.00978944 -20.9292 2.79051 -13.9083 
7182 449 3 1.008 0.03 2.28342 0.859451 1.8437 2.28342 50.0418 1.8437 0 1 0 -0.0218993 0.00410049 0.0136669 2.01638 -3.93655 0.548055 
5174 324 2 12.01 0.11 6.82972 1.77493 7.31913 6.82972 1.77493 56.5015 0 0 1 -0.00293728 0.00681802 0.00159522 -17.1687 10.3702 -4.44188 
7699 482 2 12.01 0.14 6.90049 0.557872 0.78208 154.448 49.7402 99.1468 3 1 2 -0.00161652 0.00451032 0.00827036 -3.44549 27.3459 -8.41922 
5170 324 1 16 -0.4 6.64597 0.955982 6.18642 6.64597 0.955982 55.3688 0 0 1 0.00209002 0.00308402 0.000379725 8.90384 2.8953 -14.6913 
5183 324 3 1.008 0.03 6.8794 2.88552 7.07679 6.8794 2.88552 56.2591 0 0 1 -0.000955169 -0.0232972 -0.0101194 -7.52174 -30.2698 9.58374 
7174 449 2 12.01 0.11 1.25419 0.625835 2.10949 1.25419 49.8082 2.10949 0 1 0 0.00261066 -0.00244791 -0.00164161 -9.87836 13.6895 -3.0533 
600 38 3 1.008 0.03 8.02098 7.57611 7.06473 8.02098 56.7585 7.06473 0 1 0 -0.00236816 0.0112047 -0.010611 4.51438 -32.4001 11.6014 
595 38 2 12.01 0.14 7.91428 6.4881 7.38955 7.91428 55.6705 7.38955 0 1 0 0.00221668 0.0105633 0.00125958 -51.4879 21.9417 -3.05607 
6880 430 3 1.008 0.03 3.57067 8.12105 0.881317 52.753 8.12105 0.881317 1 0 0 -0.0159871 -0.00963405 0.0373539 -17.0805 22.42 16.5399 
1499 94 3 1.008 0.03 4.2633 4.14079 0.485409 102.628 102.505 49.6678 2 2 1 -0.00878459 0.00234149 0.0089496 -14.552 -12.4412 3.41859 
6869 430 2 12.01 0.11 9.63535 8.31441 1.25016 58.8177 8.31441 1.25016 1 0 0 -0.00200987 0.00504063 0.0038247 -32.0022 -28.1766 25.7003 
847 53 3 1.008 0.03 14.5095 3.30846 0.686419 63.6918 101.673 -48.4959 1 2 -1 -0.0137924 0.00150124 -0.0274273 -13.03 -7.97463 5.97055 
604 38 3 1.008 0.03 9.10118 5.5714 5.52373 9.10118 54.7537 5.52373 0 1 0 0.0317349 -0.0167092 0.0214498 -8.89959 -1.66587 -8.87078 
6877 430 3 1.008 0.03 10.1613 7.47778 1.7497 59.3436 7.47778 1.7497 1 0 0 0.0064411 0.00135219 -0.00364828 -5.63557 8.30137 -6.1966 
846 53 3 1.008 0.03 13.9347 2.54265 2.08455 63.1171 100.907 -47.0978 1 2 -1 -0.0170588 -0.00187032 0.00107355 -6.49392 -1.25561 24.1767 
2424 152 3 1.008 0.03 9.13789 1.56182 4.39055 -138.409 50.7442 102.755 -3 1 2 0.0115428 0.00159887 -0.0075942 -5.37415 6.62564 1.57981 
2429 152 3 1.008 0.03 11.9851 3.51828 3.65384 -135.562 52.7006 102.019 -3 1 2 0.00356102 0.00507341 -0.0029883 -11.7381 -25.1102 -0.484677 
2417 152 1 16 -0.4 10.6816 2.81463 4.9728 -136.865 51.997 103.338 -3 1 2 0.00219082 -0.00545833 -0.000648686 -2.66089 9.03016 25.4862 
2427 152 3 1.008 0.03 11.7397 1.68007 3.67365 -135.807 50.8624 102.038 -3 1 2 -0.00837554 -0.00492689 -0.00601122 -3.83853 14.0267 -5.82041 
2421 152 2 12.01 0.11 11.2432 2.67167 3.73672 -136.304 51.854 102.101 -3 1 2 -0.00238813 -0.0015272 -0.00158826 5.39328 24.9701 -47.227 
7271 455 3 1.008 0.03 14.0407 7.08051 6.1707 63.223 7.08051 55.3531 1 0 1 -0.0121414 0.0317795 -0.0183227 -5.63245 -12.2964 -10.8045 
7267 455 2 12.01 0.14 13.1637 7.58132 6.56606 62.346 7.58132 55.7484 1 0 1 0.00188491 -0.00644174 -0.00740473 -43.9932 -24.5023 -5.98881 
7265 455 1 16 -0.4 11.9032 7.39652 5.78309 61.0856 7.39652 54.9654 1 0 1 0.00237823 0.00659317 0.00232109 39.5158 13.9621 56.3016 
2428 152 3 1.008 0.03 10.467 2.87013 2.90501 -137.08 52.0525 101.27 -3 1 2 -0.0192632 -0.00870099 -0.00469454 27.6878 -13.2481 31.9837 
7272 455 3 1.008 0.03 13.5182 8.5813 6.47581 62.7005 8.5813 55.6582 1 0 1 -0.00495537 -0.00546359 0.0133308 -1.90773 20.7382 10.9317 
2419 152 2 12.01 0.14 9.72547 1.83614 5.26668 -137.822 51.0185 103.631 -3 1 2 0.00130299 0.000936875 -0.00332882 2.95541 4.4957 -62.5349 
517 33 2 12.01 0.11 15.9318 2.82024 5.98272 114.296 2.82024 -43.1996 2 0 -1 0.00136138 0.00321657 -0.000103829 10.5863 -16.5253 54.646 
838 53 2 12.01 0.11 13.5739 2.946 1.16938 62.7563 101.311 -48.013 1 2 -1 0.00069234 0.00205571 0.00557033 30.1264 4.80111 -48.5678 
524 33 3 1.008 0.03 15.0702 3.32703 5.63399 113.435 3.32703 -43.5484 2 0 -1 -0.0252628 0.0151521 0.0167758 -14.6838 4.90149 -22.7726 
4770 299 1 16 -0.4 15.2584 0.623648 3.95526 113.623 -48.5587 -45.2271 2 -1 -1 -0.00367353 -0.00652381 0.000448914 6.2886 -29.5622 -0.476257 
7277 455 3 1.008 0.03 12.9193 8.20758 4.20892 62.1016 8.20758 53.3913 1 0 1 -0.00618334 0.0080871 0.00465443 28.4745 21.8138 -6.60323 
7269 455 2 12.01 0.11 12.1365 7.57122 4.45294 61.3188 7.57122 53.6353 1 0 1 -0.00253393 0.00616652 0.00424585 -44.495 -33.3494 -38.7348 
7275 455 3 1.008 0.03 12.3524 6.53715 4.12717 61.5348 6.53715 53.3095 1 0 1 0.00112493 -0.0121052 0.0164318 2.56075 13.3713 -6.66238 
848 53 3 1.008 0.03 12.9859 3.84004 1.12726 62.1682 102.205 -48.0551 1 2 -1 -0.0326594 -0.0103175 0.00649812 -12.3367 8.59457 20.7815 
842 53 3 1.008 0.03 12.5761 0.409474 1.69097 61.7584 98.7742 -47.4914 1 2 -1 -0.000250446 -0.0106421 0.00244255 -4.93049 21.3961 -19.3473 
525 33 3 1.008 0.03 16.7323 2.74346 5.28151 115.097 2.74346 -43.9008 2 0 -1 -0.00216906 -0.0220526 -0.0389959 8.07152 3.13206 -14.7706 
4775 299 3 1.008 0.03 16.1855 1.72764 1.71158 114.55 -47.4547 -47.4708 2 -1 -1 0.00451203 0.00196937 0.0156919 15.1964 -25.5125 8.1945 
523 33 3 1.008 0.03 15.674 1.79793 6.3186 114.039 1.79793 -42.8637 2 0 -1 -0.00635482 -0.0132594 -0.00969653 0.791924 9.12473 -12.4677 
7276 455 3 1.008 0.03 11.2243 7.92493 3.89866 60.4067 7.92493 53.081 1 0 1 0.0207484 -0.00298437 0.0120698 16.957 -8.46678 14.6558 
2425 152 3 1.008 0.03 11.022 0.939937 6.63608 -136.525 50.1223 105.001 -3 1 2 0.00206242 -0.00830651 -0.0293766 -26.4905 -14.8656 -25.0676 
2420 152 2 12.01 0.14 10.2391 0.620955 5.85788 -137.308 49.8033 104.223 -3 1 2 -0.00168177 0.00339161 -0.00258579 76.0116 -11.3041 51.7447 
841 53 3 1.008 0.03 11.2464 1.56182 1.38739 60.4287 99.9265 -47.795 1 2 -1 -0.0105328 0.0092751 -0.00391637 8.48477 4.99867 -5.90771 
836 53 2 12.01 0.14 12.1128 1.08921 0.912367 61.2952 99.4539 -48.27 1 2 -1 -0.000519174 0.0114735 0.00615679 1.35925 -21.6024 8.28535 
2423 152 3 1.008 0.03 9.13006 2.30271 5.9461 -138.417 51.4851 104.311 -3 1 2 -0.00478219 -0.0129421 -0.00250843 -33.1576 20.0759 30.1594 
513 33 1 16 -0.4 16.3568 3.50017 7.17453 114.721 3.50017 -42.0078 2 0 -1 -0.000820583 -0.00259068 -0.000728813 -4.24748 -12.3773 -15.4345 
4771 299 2 12.01 0.14 16.8482 0.97849 2.24237 115.213 -48.2039 -46.94 2 -1 -1 -0.00113577 0.00770343 0.00041963 35.203 8.16344 -16.8255 
4187 262 3 1.008 0.03 21.405 1.28027 1.06634 21.405 50.4626 50.2487 0 1 1 0.0124432 0.0161992 0.00270437 13.5452 20.9659 34.6607 
4773 299 2 12.01 0.11 18.9433 0.940009 3.50526 117.308 -48.2423 -45.6771 2 -1 -1 -0.00187566 -0.00312604 -0.00444204 8.87676 -22.1942 7.86671 
1252 79 2 12.01 0.14 21.4675 0.590111 6.9307 119.832 -48.5922 105.295 2 -1 2 0.00404432 0.00621391 0.000564714 7.84726 -24.0804 18.2724 
4781 299 3 1.008 0.03 19.8564 1.55362 3.57247 118.221 -47.6287 -45.6099 2 -1 -1 0.0272822 0.0169354 -0.0366776 -9.67645 -3.51 9.36867 
1259 79 3 1.008 0.03 24.0583 1.8407 4.064 122.423 -47.3417 102.429 2 -1 2 0.0139955 0.0141145 -0.0038755 -3.2218 -3.63518 -0.854951 
10318 649 8 19 -0.16 22.9584 7.3297 1.13784 22.9584 7.3297 1.13784 0 0 0 0.00785752 -0.00676907 -0.00210082 4.09858 10.1652 6.77122 
1256 79 3 1.008 0.03 23.5547 0.790193 6.24597 121.919 -48.3922 104.611 2 -1 2 0.0112593 -0.0100267 -0.0113976 -19.2555 -0.651937 -5.69169 
2029 127 3 1.008 0.03 24.7968 4.32852 7.03136 -24.3856 53.5109 7.03136 -1 1 0 -0.00209736 -0.0238611 0.00455635 -36.0117 -12.4876 -2.19331 
4779 299 3 1.008 0.03 18.6352 0.478289 4.46926 117 -48.7041 -44.7131 2 -1 -1 -0.0112717 -0.00386242 0.0218586 5.19618 16.4679 -7.43849 
1249 79 1 16 -0.4 22.1842 1.29493 4.73405 120.549 -47.8874 103.099 2 -1 2 -0.001002 -0.00567485 -0.00336715 -0.055647 0.78749 -7.16387 
10290 647 5 32.06 1.02 24.7452 7.7523 6.63393 24.7452 56.9346 6.63393 0 1 0 0.00483062 0.0032572 -0.0014949 -27.7546 -6.49087 26.2803 
4184 262 3 1.008 0.03 19.2878 2.14476 0.949681 19.2878 51.3271 50.132 0 1 1 0.0145404 -0.0361782 0.00509726 0.226381 10.4571 -9.50129 
5660 354 3 1.008 0.03 23.4491 4.30905 3.26646 -25.7333 53.4914 3.26646 -1 1 0 -0.0249631 -0.00989002 -0.0104263 7.9337 -19.806 -6.67909 
5651 354 2 12.01 0.14 20.8993 4.6379 3.96241 -28.283 53.8202 3.96241 -1 1 0 -0.00476751 0.0027268 0.000176474 -12.959 -40.8737 -10.3858 
5652 354 2 12.01 0.14 19.928 4.296 5.06246 -29.2544 53.4784 5.06246 -1 1 0 -0.00056675 0.000587683 -0.000737746 5.74113 27.6337 -1.96697 
5649 354 1 16 -0.4 22.0755 5.17042 4.54235 -27.1069 54.3528 4.54235 -1 1 0 0.00039091 -0.00148958 -0.00679949 5.13849 9.07847 -0.539169 
5657 354 3 1.008 0.03 18.94 4.18759 4.70871 -30.2423 53.3699 4.70871 -1 1 0 0.00357297 -0.0248159 -0.0155901 -21.3137 -3.17227 -15.7464 
5655 354 3 1.008 0.03 20.4137 5.32614 3.31147 -28.7687 54.5085 3.31147 -1 1 0 -8.16461e-06 0.000289659 -0.00937711 -2.17125 14.7681 -13.048 
5653 354 2 12.01 0.11 23.0847 5.2666 3.52426 -26.0977 54.4489 3.52426 -1 1 0 -0.00315495 0.00319647 -0.00473121 -34.0555 43.5452 -21.8718 
5661 354 3 1.008 0.03 22.7006 5.80431 2.5778 -26.4818 54.9867 2.5778 -1 1 0 0.00347525 0.021837 0.0338536 13.2348 -24.1495 37.0544 
10322 649 6 16 -0.53 20.8694 7.76648 5.24299 20.8694 7.76648 5.24299 0 0 0 0.00195904 0.00217117 0.00297674 -12.5908 -0.769697 -16.2388 
10324 649 8 19 -0.16 18.572 6.85254 3.66359 18.572 6.85254 3.66359 0 0 0 0.000811098 0.00280389 0.00562812 -7.38669 52.5179 10.577 
5659 354 3 1.008 0.03 23.8852 5.87461 3.91822 -25.2972 55.057 3.91822 -1 1 0 0.00675748 0.00222186 -0.00214296 9.57681 -0.208488 -0.261166 
2021 127 2 12.01 0.11 23.7419 3.92413 6.83302 -25.4404 53.1065 6.83302 -1 1 0 0.00309676 8.52973e-05 0.00123913 -6.71354 28.3157 -3.72561 
1253 79 2 12.01 0.11 23.2126 1.20639 3.767 121.577 -47.976 102.132 2 -1 2 0.0033657 0.00890781 -0.00249393 -15.0893 48.6707 -0.151208 
10458 669 9 24.305 2 21.7587 6.13067 6.24138 -27.4237 55.313 6.24138 -1 1 0 -0.00288783 -0.00312398 -0.00164759 -12.5974 12.6927 -9.81219 
5658 354 3 1.008 0.03 20.1896 3.35112 5.41627 -28.9927 52.5335 5.41627 -1 1 0 -0.00249685 0.0074843 0.0156154 8.35896 -25.3214 24.4248 
5656 354 3 1.008 0.03 21.0078 3.67116 3.39835 -28.1745 52.8535 3.39835 -1 1 0 -0.00943352 0.0255426 0.0344857 9.43158 22.6715 6.60566 
10291 647 6 16 -0.53 23.3941 7.32112 6.21238 23.3941 56.5035 6.21238 0 1 0 -0.00029877 0.00107334 -0.00812632 36.6128 3.73926 7.05792 
5650 354 1 16 -0.4 19.9679 5.36942 5.9929 -29.2145 54.5518 5.9929 -1 1 0 -0.00274907 -0.00486786 -0.00171306 -10.9037 -15.137 43.4517 
5664 354 3 1.008 0.03 17.986 5.55703 6.25974 -31.1964 54.7394 6.25974 -1 1 0 -0.0145676 -0.0275569 0.0235435 -13.6394 -7.44314 7.57822 
2028 127 3 1.008 0.03 23.6439 3.82905 5.72859 -25.5385 53.0114 5.72859 -1 1 0 0.0277361 0.00360675 0.00947035 5.99961 -5.06098 19.0504 
1261 79 3 1.008 0.03 22.7928 1.64471 2.83768 121.158 -47.5376 101.202 2 -1 2 0.00355973 -0.0343195 0.000622344 10.5517 -11.9046 7.27056 
10312 649 4 14.01 -0.66 21.0576 8.48848 2.91827 21.0576 8.48848 2.91827 0 0 0 -0.00506881 0.00881718 -0.00672934 35.7319 -36.9147 -51.9297 
10323 649 7 12.01 0.35 18.6551 8.21159 3.91516 18.6551 8.21159 3.91516 0 0 0 0.000954226 0.00392348 0.000814574 -1.6016 -6.50399 18.9988 
10325 649 8 19 -0.16 17.923 8.55076 5.00414 17.923 8.55076 5.00414 0 0 0 -0.000371439 -0.00120806 -0.000587849 6.38211 -25.129 -22.0503 
8235 515 3 1.008 0.03 16.9033 7.74605 7.05315 115.268 7.74605 -42.1292 2 0 -1 0.0080275 0.000321733 0.0270281 -6.72454 1.9456 -7.51863 
5654 354 2 12.01 0.11 18.81 5.30705 6.92039 -30.3723 54.4894 6.92039 -1 1 0 -0.00145623 -0.0126095 -0.00550378 40.4815 85.6155 -42.9016 
4769 299 1 16 -0.4 17.9012 1.72828 2.93023 116.266 -47.4541 -46.2521 2 -1 -1 -0.000529384 -0.00376829 -0.00948311 -19.1892 -17.7715 -5.83385 
2027 127 3 1.008 0.03 23.6233 2.92057 7.26649 -25.5591 52.1029 7.26649 -1 1 0 0.00340711 -0.0148269 -0.00107717 5.56834 5.20165 -2.34584 
1251 79 2 12.01 0.14 22.542 0.526653 5.84762 120.907 -48.6557 104.212 2 -1 2 0.00235877 0.00341693 -0.00665059 13.8408 7.15668 28.511 
2017 127 1 16 -0.4 22.6275 4.80063 7.29915 -26.5548 53.983 7.29915 -1 1 0 0.00157393 0.00551465 0.00134044 39.2115 -24.9249 -15.4292 
6491 406 3 1.008 0.03 24.155 0.956546 0.805971 -25.0273 -48.2258 49.9883 -1 -1 1 0.00877662 0.0349437 -0.031064 -12.5249 1.99664 -10.2404 
1250 79 1 16 -0.4 21.1692 1.87242 7.39208 119.534 -47.3099 105.757 2 -1 2 0.000930206 0.00268118 0.00211 7.70633 28.0408 -8.91001 
453 29 2 12.01 0.11 0.816423 15.1908 1.04256 -48.3659 15.1908 99.4073 -1 0 2 -0.00305748 0.000566066 -0.0042546 -17.3339 -36.3146 -15.6617 
4424 277 3 1.008 0.03 5.12291 9.65615 6.18814 103.488 9.65615 104.553 2 0 2 0.0132742 -0.00382778 -0.0092312 15.476 12.1637 -1.40638 
460 29 3 1.008 0.03 1.20189 15.836 1.84174 -47.9805 15.836 100.206 -1 0 2 0.0301917 0.0232762 0.0192825 1.69989 -5.28758 -3.36668 
4429 277 3 1.008 0.03 4.93582 8.79554 4.20908 103.301 8.79554 102.574 2 0 2 0.00215319 0.0102872 0.0346081 -29.3181 2.48625 6.77319 
4421 277 2 12.01 0.11 3.84632 8.62369 4.47188 102.211 8.62369 102.837 2 0 2 0.00585349 0.00439518 -0.00382368 27.4337 -32.9002 -14.206 
4428 277 3 1.008 0.03 3.28984 8.75344 3.52649 101.655 8.75344 101.891 2 0 2 0.00668488 -0.0216184 0.018707 4.45461 -11.8741 8.35809 
4417 277 1 16 -0.4 3.31204 9.59896 5.35072 101.677 9.59896 103.715 2 0 2 -0.00611531 0.00437443 -0.00416569 -17.789 -10.0387 -25.4038 
4419 277 2 12.01 0.14 4.09002 9.75226 6.45565 102.455 9.75226 104.82 2 0 2 -0.00483276 -0.00114736 -0.00578697 11.4366 -9.41206 30.5694 
6271 392 3 1.008 0.03 0.800919 15.0456 7.14412 0.800919 15.0456 105.509 0 0 2 -0.00140726 -0.0186615 0.0127291 -39.4267 13.3077 26.9155 
8830 552 3 1.008 0.03 1.64695 15.1859 4.35605 1.64695 113.551 102.721 0 2 2 0.00206598 0.00513675 0.0129816 -2.74097 -6.83257 4.61973 
6874 430 3 1.008 0.03 5.7892 8.80318 1.61325 54.9715 8.80318 1.61325 1 0 0 -0.00200247 0.0159799 0.020243 -10.2816 -20.9004 -14.1025 
4426 277 3 1.008 0.03 3.63637 11.8375 6.41625 102.001 11.8375 104.781 2 0 2 -0.0243279 -0.0022713 -0.0316308 1.94456 -9.26017 6.86345 
8823 552 3 1.008 0.03 2.54798 10.819 2.77681 2.54798 109.184 101.142 0 2 2 -0.00919533 0.0107977 -0.0208656 -10.7937 -0.652738 0.297162 
8817 552 1 16 -0.4 3.04238 11.8288 1.023 3.04238 110.193 99.3877 0 2 2 0.00570497 0.00331648 -0.00405188 19.7606 -1.9863 10.2829 
8819 552 2 12.01 0.14 3.33217 11.4506 2.39339 3.33217 109.815 100.758 0 2 2 -0.00458005 0.00387366 0.000344436 12.679 -14.9105 -11.2888 
8824 552 3 1.008 0.03 4.21484 10.779 2.46776 4.21484 109.144 100.832 0 2 2 0.00836245 -0.0170754 0.0100791 -7.48539 12.982 -5.99077 
3018 189 3 1.008 0.03 6.64306 13.313 5.31914 6.64306 -35.8694 54.5015 0 -1 1 -0.0106337 -0.013207 -0.0208398 12.4467 -5.36115 -7.29963 
8826 552 3 1.008 0.03 4.41393 13.2561 2.99501 4.41393 111.621 101.36 0 2 2 -0.0336934 0.0160997 0.00875015 -6.78855 -7.25116 5.89692 
8820 552 2 12.01 0.14 3.56058 12.6413 3.34176 3.56058 111.006 101.706 0 2 2 -0.000293066 -0.00396696 -0.0055973 -6.29309 0.426102 15.3619 
8825 552 3 1.008 0.03 3.76025 12.2048 4.36522 3.76025 110.569 102.73 0 2 2 -0.014824 0.00599441 -0.0152439 2.29346 15.1657 -28.8889 
8818 552 1 16 -0.4 2.36609 13.441 3.4434 2.36609 111.806 101.808 0 2 2 0.00220979 -0.00121186 0.00518864 6.37713 -9.89057 -11.6452 
3012 189 2 12.01 0.14 7.49667 12.7241 4.91653 7.49667 -36.4583 54.0989 0 -1 1 0.00518623 0.0099624 -0.00971813 0.848438 32.0732 20.7248 
3010 189 1 16 -0.4 7.00008 11.4283 4.75024 7.00008 -37.754 53.9326 0 -1 1 -0.00142767 -0.00107671 -0.00245211 11.0307 -42.8607 16.0917 
8822 552 2 12.01 0.11 2.54259 14.57 4.2662 2.54259 112.935 102.631 0 2 2 -0.00102487 -0.00532572 0.000179602 6.32381 5.38397 2.73257 
8832 552 3 1.008 0.03 3.30775 15.2509 3.93986 3.30775 113.616 102.305 0 2 2 -0.018734 0.00350798 -0.0209014 7.0833 2.80423 -13.1649 
8831 552 3 1.008 0.03 2.93525 14.2414 5.21151 2.93525 112.606 103.576 0 2 2 0.00990183 -0.00783509 -0.00330948 -7.34907 -0.489632 15.3987 
3014 189 2 12.01 0.11 8.00979 10.3886 4.98868 8.00979 -38.7938 54.171 0 -1 1 -0.00620736 -0.00506178 0.000750186 -22.9744 18.4482 2.27143 
3024 189 3 1.008 0.03 8.4263 10.1865 4.02476 8.4263 -38.9958 53.2071 0 -1 1 0.00807209 0.000136284 0.0101104 15.8735 1.07182 -9.51981 
3023 189 3 1.008 0.03 7.62351 9.39124 5.28572 7.62351 -39.7911 54.4681 0 -1 1 -0.00775575 -0.0184083 -0.0260299 -2.17565 16.6931 2.44728 
3017 189 3 1.008 0.03 8.32767 12.8402 5.65564 8.32767 -36.3421 54.838 0 -1 1 0.00356128 -0.00625449 0.00852071 -16.7995 -5.61872 -7.94465 
3011 189 2 12.01 0.14 7.95957 13.322 3.59698 7.95957 -35.8603 52.7793 0 -1 1 0.00374169 0.00769485 -0.00152373 20.9601 0.8902 1.03795 
3016 189 3 1.008 0.03 7.26843 13.1786 2.78567 7.26843 -36.0037 51.968 0 -1 1 0.00771175 0.0137633 -0.0163377 -16.1175 -1.31851 -0.45734 
3015 189 3 1.008 0.03 8.16221 14.3893 3.67783 8.16221 -34.7931 52.8602 0 -1 1 -0.000542209 0.0154248 0.0109452 -5.18063 0.850286 1.652 
4420 277 2 12.01 0.14 3.75722 11.029 7.15662 102.122 11.029 105.521 2 0 2 -0.0027846 -0.000509868 -0.00768461 -11.7375 37.618 3.77775 
9292 581 3 1.008 0.03 7.2539 15.4492 1.47597 154.801 -33.7331 -47.7064 3 -1 -1 -0.000242685 -0.0157624 -0.0158903 -1.46222 -5.87298 -16.3068 
459 29 3 1.008 0.03 1.58556 14.4926 0.623939 -47.5968 14.4926 98.9886 -1 0 2 -0.00557418 0.00670033 -0.0292252 -8.65793 19.0946 12.7524 
4423 277 3 1.008 0.03 3.99359 9.00192 7.20693 102.358 9.00192 105.572 2 0 2 -0.0160916 -0.00275227 0.0168415 -9.0685 -19.1298 2.75916 
6876 430 3 1.008 0.03 10.2436 9.19464 1.38045 59.4259 9.19464 1.38045 1 0 0 -0.0029768 0.00451013 0.00524513 -2.3146 11.4473 2.67549 
8653 541 3 1.008 0.03 16.0725 16.2347 7.03296 -33.1099 -32.9477 -42.1494 -1 -1 -1 0.0150347 -0.0100956 0.00270579 7.39496 18.6604 -18.4472 
3022 189 3 1.008 0.03 8.772 10.747 5.71171 8.772 -38.4353 54.8941 0 -1 1 -0.0145015 -0.00523763 0.0152361 -4.99842 -12.5939 -8.8057 
3021 189 3 1.008 0.03 10.3733 12.325 1.65232 10.3733 -36.8574 50.8347 0 -1 1 -0.0235351 0.00397661 -0.00143447 12.5715 -9.81606 -0.609502 
3020 189 3 1.008 0.03 9.69551 13.9367 1.56398 9.69551 -35.2457 50.7463 0 -1 1 0.0243623 0.0119432 0.00110748 -15.4327 -23.7236 9.84278 
6334 396 3 1.008 0.03 16.5131 10.0374 0.729679 -131.034 157.584 -48.4527 -3 3 -1 0.00281018 -0.00985668 0.0145226 -1.67834 -12.266 -2.88501 
3009 189 1 16 -0.4 9.20614 12.7191 3.29088 9.20614 -36.4632 52.4732 0 -1 1 0.00187691 0.000654846 0.00232176 3.98234 7.60596 -10.351 
8333 521 3 1.008 0.03 11.816 16.6691 3.99764 110.181 65.8515 53.18 2 1 1 -0.0160437 0.0182869 -0.00245285 -0.375811 2.66253 -12.1752 
7553 473 1 16 -0.4 13.0379 12.8991 6.85966 13.0379 160.446 105.224 0 3 2 -0.000445238 -0.0034744 -0.00419996 -5.50746 -6.73557 -7.97027 
7555 473 2 12.01 0.14 12.2103 12.3086 5.86021 12.2103 159.856 104.225 0 3 2 -0.00344145 -0.0015217 -0.00201877 -9.41682 49.5797 -36.7344 
7562 473 3 1.008 0.03 12.4653 10.6845 4.32269 12.4653 158.232 102.687 0 3 2 -0.0101766 6.25454e-05 0.0243367 13.9565 24.7601 12.6316 
8325 521 2 12.01 0.11 11.1045 16.0776 3.40485 109.469 65.26 52.5872 2 1 1 0.00761168 -0.00130595 0.000993359 2.52093 -4.12305 -1.00762 
8321 521 1 16 -0.4 9.88539 16.7095 3.1636 108.25 65.8918 52.3459 2 1 1 -0.00250702 -0.00324054 -0.00181813 -11.0501 -2.94125 19.1499 
8327 521 3 1.008 0.03 8.86821 16.178 4.96996 107.233 65.3603 54.1523 2 1 1 -0.0130477 0.00936446 -0.00631485 7.54797 0.888953 -0.940377 
7567 473 3 1.008 0.03 14.8591 12.0552 2.6632 14.8591 159.602 101.028 0 3 2 0.0220721 -0.0299963 0.0136911 -4.64823 -16.3351 5.117 
7558 473 2 12.01 0.11 13.7869 11.9991 2.43807 13.7869 159.546 100.803 0 3 2 0.00211284 0.0040681 -0.00135896 -18.2606 4.34411 20.0258 
7554 473 1 16 -0.4 12.9843 12.5301 3.52829 12.9843 160.077 101.893 0 3 2 0.00321913 -0.00835006 -0.00247344 13.802 2.14431 -21.8009 
7556 473 2 12.01 0.14 12.9514 11.6597 4.64313 12.9514 159.207 103.008 0 3 2 -0.00598727 3.02139e-05 0.00698622 -45.0378 -8.28217 5.70341 
7561 473 3 1.008 0.03 13.9106 11.5036 4.99529 13.9106 159.051 103.36 0 3 2 0.0149791 0.00230932 0.00132345 37.5625 -14.6889 5.64284 
7568 473 3 1.008 0.03 13.3324 11.0313 2.16539 13.3324 158.578 100.53 0 3 2 0.0265481 -0.0107575 -0.0154933 18.5957 0.372564 2.24079 
7566 473 3 1.008 0.03 13.7541 12.5614 1.52894 13.7541 160.108 99.8936 0 3 2 -0.00573108 -0.00903732 0.0102543 -10.5357 14.1718 -7.27928 
7154 448 1 16 -0.4 15.6193 15.3579 2.8656 15.6193 -83.0068 52.048 0 -2 1 -0.00100432 -0.00293114 -0.000887084 1.82525 -12.1992 -36.6313 
7162 448 3 1.008 0.03 13.6133 15.6035 2.48653 13.6133 -82.7612 51.6689 0 -2 1 0.00107732 0.0039668 -0.00703039 -5.3457 -3.58503 4.04274 
7560 473 3 1.008 0.03 11.6168 13.1856 5.4518 11.6168 160.733 103.816 0 3 2 -0.0114028 -0.000212278 -0.00682495 9.88398 -27.7357 8.5048 
7158 448 2 12.01 0.11 15.6728 15.5299 4.24698 15.6728 -82.8348 53.4293 0 -2 1 0.00173664 0.00633051 -0.00552972 -17.1236 15.8127 30.0644 
8331 521 3 1.008 0.03 11.0247 15.1344 3.92115 109.389 64.3167 53.1035 2 1 1 -0.0422603 0.004609 0.00550708 -7.24072 -8.27469 1.99808 
8332 521 3 1.008 0.03 11.3965 15.8655 2.38455 109.761 65.0478 51.5669 2 1 1 -0.0051857 -0.00796337 -0.00193771 16.9448 -0.948201 -0.250709 
7559 473 3 1.008 0.03 11.5183 11.639 6.28813 11.5183 159.186 104.653 0 3 2 -0.0291287 -0.00173318 -0.0090849 -14.5245 -17.8122 11.2546 
3013 189 2 12.01 0.11 9.49446 12.8757 1.90262 9.49446 -36.3066 51.085 0 -1 1 0.00748717 0.00439831 0.00369411 6.53322 19.7731 18.3176 
7167 448 3 1.008 0.03 16.3988 14.8685 4.65008 16.3988 -83.4962 53.8324 0 -2 1 0.014959 0.0251138 0.0102837 12.238 -14.8832 3.39241 
7168 448 3 1.008 0.03 16.0574 16.5009 4.54804 16.0574 -81.8638 53.7304 0 -2 1 -0.00262789 -0.0018822 -0.00622507 -10.3703 5.06802 -9.41255 
3019 189 3 1.008 0.03 8.66798 12.369 1.44045 8.66798 -36.8133 50.6228 0 -1 1 -0.00642066 0.0154582 0.0142098 -2.21265 3.59405 -21.0414 
7166 448 3 1.008 0.03 14.7663 15.3244 4.84631 14.7663 -83.0403 54.0287 0 -2 1 -0.00121388 0.00987741 -0.00280089 1.36418 1.46757 -16.9829 
8652 541 3 1.008 0.03 14.9561 14.9268 7.23491 -34.2262 -34.2555 -41.9474 -1 -1 -1 -0.00970885 0.0015416 0.00362953 4.8876 3.36392 1.2299 
7155 448 2 12.01 0.14 14.621 15.7065 0.585849 14.621 -82.6582 49.7682 0 -2 1 -0.00189991 0.00148101 0.0024617 24.1014 -18.8651 -33.0879 
7156 448 2 12.01 0.14 14.5558 15.962 2.1113 14.5558 -82.4027 51.2936 0 -2 1 0.00501533 0.00258114 0.00638227 7.54665 49.1397 4.92485 
10111 635 6 16 -0.53 24.9374 13.2857 1.2577 123.302 62.4681 1.2577 2 1 0 -0.00472143 0.0011945 -0.00245083 -4.97606 -11.4656 5.55643 
7800 488 3 1.008 0.03 24.6427 16.7249 3.79227 73.8251 16.7249 3.79227 1 0 0 -0.000170287 -0.00398495 0.00778929 -1.52083 -7.49241 -11.3799 
7975 499 3 1.008 0.03 24.9838 15.8671 6.30048 -73.3809 -82.4976 55.4828 -2 -2 1 0.0169424 0.0142977 -0.00178583 4.26552 1.14798 10.3369 
10314 649 6 16 -0.53 20.1785 8.76733 0.587716 20.1785 8.76733 0.587716 0 0 0 0.00394082 -0.000393139 0.00318754 4.9587 8.60018 -4.72888 
10316 649 7 12.01 0.35 22.8275 8.62172 0.850803 22.8275 8.62172 0.850803 0 0 0 0.000548648 -0.00184301 -0.00980935 -15.7083 -36.0203 -11.6151 
10320 649 5 32.06 1.02 20.3933 8.7315 4.24353 20.3933 8.7315 4.24353 0 0 0 0.00432656 -0.00200586 -0.000116368 -4.82254 57.5407 70.3677 
7799 488 3 1.008 0.03 24.5042 15.8161 2.24294 73.6865 15.8161 2.24294 1 0 0 -0.00859856 0.00091089 0.00167321 3.56554 3.31168 -1.34008 
10313 649 5 32.06 1.02 21.1686 9.23856 1.52572 21.1686 9.23856 1.52572 0 0 0 0.00137262 0.000742641 0.000409774 25.7363 34.7135 40.4543 
7801 488 3 1.008 0.03 24.2833 14.1002 3.89465 73.4657 14.1002 3.89465 1 0 0 -0.00858937 0.011973 -0.00641047 14.436 -16.9436 -2.78758 
7795 488 2 12.01 0.14 23.9746 16.1284 3.13698 73.1569 16.1284 3.13698 1 0 0 9.73284e-05 0.00271131 -0.00772537 28.0866 -26.1815 51.0886 
10319 649 8 19 -0.16 23.9753 9.20702 1.22167 23.9753 9.20702 1.22167 0 0 0 -0.000188455 0.00642833 -0.00181133 -22.555 5.53616 7.31051 
7802 488 3 1.008 0.03 23.3733 15.0531 5.09613 72.5556 15.0531 5.09613 1 0 0 0.0335026 -0.0037724 0.00493612 10.1804 -0.395309 -39.2146 
10326 649 8 19 -0.16 18.113 8.90495 2.9144 18.113 8.90495 2.9144 0 0 0 0.00558243 0.000236321 -0.000396551 3.1286 -14.029 -1.01741 
10321 649 6 16 -0.53 20.3432 10.1253 4.74261 20.3432 10.1253 4.74261 0 0 0 0.0061076 -0.00291699 0.002267 -5.95927 -44.3783 -28.1127 
7808 488 3 1.008 0.03 20.9519 12.8966 3.45196 70.1342 12.8966 3.45196 1 0 0 -0.00307975 -0.0262206 -0.0165595 13.4291 3.16888 -1.60892 
7796 488 2 12.01 0.14 23.5552 14.8649 3.97777 72.7375 14.8649 3.97777 1 0 0 -0.00246988 0.000221987 0.013656 -13.3082 44.2024 28.8495 
10315 649 6 16 -0.53 21.413 10.667 1.70639 21.413 10.667 1.70639 0 0 0 -0.00636524 0.00317386 -0.00102198 -11.9841 -15.8098 -17.4284 
7807 488 3 1.008 0.03 21.3703 13.4826 5.00528 70.5526 13.4826 5.00528 1 0 0 0.021937 0.017864 -0.00347622 21.4422 -9.25388 -17.1579 