ITEM: TIMESTEP
2400000
ITEM: NUMBER OF ATOMS
10479
ITEM: BOX BOUNDS pp pp pp
4.0882558190751794e-01 4.9591174418091420e+01
4.0882558190751794e-01 4.9591174418091420e+01
4.0882558190751794e-01 4.9591174418091420e+01
ITEM: ATOMS id mol type mass q x y z xu yu zu ix iy iz vx vy vz fx fy fz 
10129 636 8 19 -0.16 3.30147 5.73079 6.26197 3.30147 5.73079 55.4443 0 0 1 0.000887418 -0.00191488 -0.00049441 1.75644 -2.79763 -33.9025 
2166 136 2 12.01 0.11 7.05171 5.97971 1.9114 105.416 5.97971 1.9114 2 0 0 -0.00284097 -0.00164911 0.00407215 1.72662 -17.0061 -8.12189 
2162 136 1 16 -0.4 6.13142 4.99067 2.30544 104.496 4.99067 2.30544 2 0 0 -0.00390244 0.00777484 -0.00388927 -23.5935 22.101 3.30224 
2165 136 2 12.01 0.11 3.56031 1.64269 3.30714 101.925 1.64269 3.30714 2 0 0 -0.00906571 0.00459375 -0.00102909 37.2455 -46.1144 -22.0887 
2163 136 2 12.01 0.14 5.24674 2.72808 2.07057 103.611 2.72808 2.07057 2 0 0 0.00780565 -0.00301501 0.00258302 -6.81229 -0.904522 16.7681 
976 61 3 1.008 0.03 4.16533 3.34856 5.75877 4.16533 3.34856 54.9411 0 0 1 0.00217965 0.0152015 -0.0136683 -10.4485 11.514 3.80981 
2176 136 3 1.008 0.03 8.06372 5.7177 2.1211 106.428 5.7177 2.1211 2 0 0 -0.0027189 0.0189711 0.0195049 14.1913 3.58766 23.1899 
2164 136 2 12.01 0.14 6.49247 3.67898 2.05853 104.857 3.67898 2.05853 2 0 0 0.0014544 -0.00181284 0.00585576 9.0709 -26.3083 8.37675 
2161 136 1 16 -0.4 4.70806 2.48434 3.44351 103.073 2.48434 3.44351 2 0 0 -0.00192911 -0.00576152 -0.0026483 7.74286 2.22321 -56.0565 
1011 64 2 12.01 0.14 2.01438 5.73541 3.46571 51.1967 -92.6293 101.83 1 -2 2 -0.0108066 0.0065242 -0.00537448 -23.7397 40.4103 8.50738 
2169 136 3 1.008 0.03 7.18772 3.52103 2.86767 105.552 3.52103 2.86767 2 0 0 -0.0110463 -0.00110068 -0.0134049 1.94975 -16.8696 5.58258 
2171 136 3 1.008 0.03 2.75311 2.16572 2.83388 101.118 2.16572 2.83388 2 0 0 0.000355758 0.0175512 0.0138913 -14.9445 6.3774 3.14011 
7934 496 3 1.008 0.03 6.8531 6.23267 5.40237 6.8531 6.23267 54.5847 0 0 1 0.0208243 0.00267565 0.0131168 12.2904 29.5705 -10.0993 
969 61 3 1.008 0.03 6.22097 1.85072 5.51821 6.22097 1.85072 54.7006 0 0 1 0.0070996 -0.000319218 -0.0180992 -9.45528 2.85002 9.2974 
7926 496 2 12.01 0.11 6.74193 5.2225 5.64348 6.74193 5.2225 54.8258 0 0 1 -0.00590777 0.000410941 -0.0126963 -1.56829 -32.5854 -8.53168 
7936 496 3 1.008 0.03 5.67856 5.11188 5.5638 5.67856 5.11188 54.7461 0 0 1 0.0118968 0.000870582 -0.000253018 -10.1486 -8.48748 -5.40357 
2173 136 3 1.008 0.03 3.35491 1.21279 4.28251 101.72 1.21279 4.28251 2 0 0 -0.0110411 0.00231905 -0.000742726 -12.5468 5.06668 2.53019 
1010 64 1 16 -0.4 2.99558 6.91909 1.64297 52.1779 -91.4456 100.008 1 -2 2 -0.00348883 -0.00206722 -0.00290192 0.395416 10.9782 -6.73775 
7935 496 3 1.008 0.03 7.23836 4.54 4.91694 7.23836 4.54 54.0993 0 0 1 0.00761333 -0.0120386 -0.00499498 -4.42536 13.2478 9.80658 
2170 136 3 1.008 0.03 7.10285 3.52279 1.17039 105.468 3.52279 1.17039 2 0 0 -0.0296464 -0.0201946 0.00997244 -5.38881 4.7004 -6.6586 
2168 136 3 1.008 0.03 4.52317 3.13389 1.34473 102.888 3.13389 1.34473 2 0 0 -0.0131148 0.0140957 0.00762535 -1.87236 2.48027 14.7321 
2167 136 3 1.008 0.03 5.44061 1.76139 1.57257 103.805 1.76139 1.57257 2 0 0 0.00972233 0.0124508 0.00482062 11.0243 7.41939 10.8864 
2175 136 3 1.008 0.03 6.75409 6.98261 2.23783 105.119 6.98261 2.23783 2 0 0 0.015277 -0.029751 -0.000604101 4.77267 -4.4998 -3.50095 
2174 136 3 1.008 0.03 7.15585 5.87637 0.855152 105.521 5.87637 0.855152 2 0 0 -0.00413942 -0.00441323 0.0156591 -10.4848 14.1089 -19.2871 
967 61 3 1.008 0.03 8.11127 2.55823 6.49042 8.11127 2.55823 55.6728 0 0 1 -0.00474788 0.00950201 -0.0190414 9.2868 9.07373 -13.0445 
1012 64 2 12.01 0.14 3.3164 6.20354 2.82742 52.4987 -92.1612 101.192 1 -2 2 0.000876382 0.0073336 -0.000636976 22.0607 15.4691 27.0736 
1017 64 3 1.008 0.03 3.9998 6.79632 3.54046 53.1822 -91.5684 101.905 1 -2 2 0.00679142 0.0152192 -0.0229223 -25.7072 -20.4123 -25.892 
1018 64 3 1.008 0.03 3.7707 5.25828 2.64606 52.9531 -93.1064 101.011 1 -2 2 -0.0142035 0.00815265 0.0123364 14.1877 -8.84787 -12.4556 
968 61 3 1.008 0.03 8.0608 0.935938 7.11386 8.0608 0.935938 56.2962 0 0 1 6.96381e-05 0.00267786 -0.0153828 -4.30917 6.90278 1.77392 
10131 636 8 19 -0.16 2.5043 7.70945 6.67862 2.5043 7.70945 55.861 0 0 1 -0.00154902 -0.000317912 -0.0026735 11.768 -6.37478 -9.98806 
10128 636 7 12.01 0.35 2.90289 6.54609 7.18576 2.90289 6.54609 56.3681 0 0 1 -6.31067e-05 0.00285684 0.000361836 -52.5363 -11.2849 45.0526 
970 61 3 1.008 0.03 5.81829 0.744645 6.81593 5.81829 0.744645 55.9983 0 0 1 -0.00261661 -0.021877 0.0105117 -8.73159 -1.03868 4.67141 
964 61 2 12.01 0.14 6.14652 1.7598 6.61711 6.14652 1.7598 55.7995 0 0 1 0.00829477 0.00550719 0.00458663 -5.9043 -2.28228 -28.6864 
1014 64 2 12.01 0.11 3.77231 6.72725 0.453311 52.9547 -91.6375 98.818 1 -2 2 -0.00191673 0.0084454 -0.00254354 -9.64248 -61.7862 -8.94719 
1015 64 3 1.008 0.03 2.22374 4.99475 4.26701 51.4061 -93.37 102.632 1 -2 2 -0.00535822 -0.0136103 0.0157008 -11.4085 4.69545 -12.1424 
2097 132 1 16 -0.4 7.95634 0.850258 3.6037 -41.226 -97.5144 52.786 -1 -2 1 0.0019617 -0.00193428 0.00621458 -16.4019 16.4895 -9.53612 
2172 136 3 1.008 0.03 3.77496 0.717557 2.6396 102.14 0.717557 2.6396 2 0 0 -0.00979037 -0.00861952 -0.00685043 0.389835 44.6712 33.3207 
1022 64 3 1.008 0.03 4.82828 7.02077 0.46667 54.0106 -91.3439 98.8314 1 -2 2 0.00534377 0.00573982 0.0140103 -6.85321 1.41209 5.78468 
7929 496 3 1.008 0.03 8.60366 6.46543 6.82615 8.60366 6.46543 56.0085 0 0 1 0.0203855 0.0167361 -0.0286515 -2.43241 1.66753 -8.92981 
1009 64 1 16 -0.4 1.35445 6.93066 3.9724 50.5368 -91.434 102.337 1 -2 2 0.00461578 0.00285567 0.00434142 54.2234 -10.0317 -1.03449 
3041 191 1 16 -0.4 0.480957 0.465877 6.78522 49.6633 49.6482 55.9676 1 1 1 -0.00510414 -0.000738104 -0.00189273 -54.1608 -22.6683 44.3356 
1016 64 3 1.008 0.03 1.34484 5.41496 2.65555 50.5272 -92.9497 101.02 1 -2 2 0.0347174 0.00642361 -0.002672 7.73249 -17.8993 7.3296 
7922 496 1 16 -0.4 7.07606 4.92919 6.9764 7.07606 4.92919 56.1587 0 0 1 0.00195572 0.00151224 0.00153294 15.0662 2.4111 20.4036 
966 61 2 12.01 0.11 4.03038 2.94986 6.76429 4.03038 2.94986 55.9466 0 0 1 0.000163385 0.0118857 -0.00386042 14.2066 -51.0419 -19.2413 
963 61 2 12.01 0.14 7.54287 1.91096 7.11551 7.54287 1.91096 56.2979 0 0 1 -0.00329303 -0.0113451 0.00186468 28.3463 -12.2195 35.9355 
962 61 1 16 -0.4 5.36732 2.77522 7.25249 5.36732 2.77522 56.4348 0 0 1 -0.00096733 0.00481863 -0.0058399 -7.02358 9.55978 11.7781 
1182 74 3 1.008 0.03 1.27872 3.50978 0.489032 1.27872 52.6921 49.6714 0 1 1 0.0199993 0.0133747 -0.00494415 26.2351 -5.63417 30.8769 
974 61 3 1.008 0.03 3.5881 1.91741 6.56547 3.5881 1.91741 55.7478 0 0 1 0.00412884 0.0119531 0.00481434 3.09754 32.4674 16.2021 
7924 496 2 12.01 0.14 8.32032 5.56297 7.35397 8.32032 5.56297 56.5363 0 0 1 0.00548673 -0.00233488 0.00689218 -21.752 -6.44039 21.6387 
7894 494 2 12.01 0.11 12.6421 1.44249 6.74798 -36.5402 99.8072 55.9303 -1 2 1 -0.000632755 0.00616292 0.00194413 13.0063 -21.978 -44.571 
2106 132 3 1.008 0.03 9.80092 2.34352 2.62488 -39.3814 -96.0212 51.8072 -1 -2 1 -0.0194845 -0.0149194 0.0170813 9.05541 -5.78347 0.999005 
5262 329 3 1.008 0.03 15.4193 6.96247 2.43635 -33.763 56.1448 2.43635 -1 1 0 0.00816646 0.00684878 0.0293057 34.3298 -3.60909 -11.4708 
2110 132 3 1.008 0.03 12.0568 3.64163 4.45494 -37.1256 -94.7231 53.6373 -1 -2 1 -0.00416451 0.00636408 -0.00343324 -0.96919 -11.735 -0.198224 
9648 604 7 12.01 0.35 10.8123 7.7068 4.00369 10.8123 56.8892 4.00369 0 1 0 -0.00660675 -0.00321139 -0.000675694 -34.0584 -18.9106 -33.0577 
2111 132 3 1.008 0.03 10.8862 4.25305 3.29446 -38.2962 -94.1116 52.4768 -1 -2 1 -0.0129984 -0.0125287 0.0197661 1.10763 -7.10024 -1.76907 
9764 612 8 19 -0.16 15.2225 3.29497 2.46067 -33.9598 52.4773 2.46067 -1 1 0 -0.00226753 0.00156839 0.00203139 -7.15382 -17.0348 -5.61251 
9761 612 7 12.01 0.35 14.8213 2.00982 2.45062 -34.3611 51.1922 2.45062 -1 1 0 0.00129277 0.000252331 0.00680011 -37.5766 33.9309 37.4663 
2098 132 1 16 -0.4 10.0278 2.86695 4.59321 -39.1546 -95.4978 53.7756 -1 -2 1 -0.00183662 0.00400766 0.000309337 18.1606 13.2548 0.283619 
2100 132 2 12.01 0.14 10.1579 1.91144 3.57193 -39.0245 -96.4533 52.7543 -1 -2 1 0.00299107 0.00355764 0.00476107 -62.7621 -22.4674 16.1274 
9762 612 8 19 -0.16 14.9541 1.63086 3.7423 -34.2283 50.8132 3.7423 -1 1 0 0.0048626 0.00375751 0.00196085 -4.36552 -0.995416 -25.231 
2102 132 2 12.01 0.11 11.0056 3.87735 4.30589 -38.1768 -94.4873 53.4882 -1 -2 1 0.00454272 -0.00217818 -0.00735345 -4.32854 19.8014 -5.93036 
9763 612 8 19 -0.16 13.4777 2.03924 2.17823 -35.7046 51.2216 2.17823 -1 1 0 0.00216016 -0.000477203 -0.00709951 46.2057 -9.29841 6.38383 
9651 604 8 19 -0.16 10.1536 7.21237 5.03898 10.1536 56.3947 5.03898 0 1 0 -0.00474 -0.000931652 -0.00470343 14.5713 3.77652 9.78954 
9649 604 8 19 -0.16 10.7985 6.7014 3.13512 10.7985 55.8837 3.13512 0 1 0 0.000894051 0.00192328 0.00404295 10.1493 2.83766 0.861825 
2112 132 3 1.008 0.03 10.8785 4.81024 4.82157 -38.3039 -93.5545 54.0039 -1 -2 1 -0.00751749 -0.000244479 -0.00858302 -9.43698 1.74112 17.9411 
5254 329 2 12.01 0.11 16.5201 6.91575 2.12969 -32.6623 56.0981 2.12969 -1 1 0 0.00793603 0.00146582 -0.0045359 -16.537 -11.4551 0.779748 
2105 132 3 1.008 0.03 11.147 1.57481 3.54488 -38.0353 -96.7899 52.7272 -1 -2 1 0.0178503 0.00529926 -0.011259 31.849 -6.0784 -9.55313 
4216 264 3 1.008 0.03 11.7039 2.45813 1.23034 11.7039 -46.7242 -97.1344 0 -1 -2 -0.00619017 -0.0232965 -0.0135821 -4.16937 -0.480416 -28.2289 
5263 329 3 1.008 0.03 16.6443 7.27145 1.07755 -32.5381 56.4538 1.07755 -1 1 0 -0.0121677 -0.0068371 0.00213141 -7.60236 -7.02207 15.9788 
9758 612 5 32.06 1.02 15.8332 1.02541 1.32657 -33.3492 50.2078 1.32657 -1 1 0 -0.00222477 0.000444588 -0.00251665 -4.6081 -14.9755 27.538 
5276 330 3 1.008 0.03 16.2905 2.90753 6.07514 65.4728 -46.2748 -43.1072 1 -1 -1 0.0160112 -0.00189178 -0.00104301 16.8515 3.03007 -4.64446 
9650 604 8 19 -0.16 12.0649 7.96748 4.28012 12.0649 57.1498 4.28012 0 1 0 0.0109821 -0.00087158 0.000479392 12.1218 -1.44055 14.007 
2099 132 2 12.01 0.14 9.28782 0.646597 3.93803 -39.8945 -97.7181 53.1204 -1 -2 1 0.00789548 -0.00544076 -0.00788845 39.8651 1.46301 -35.7259 
7903 494 3 1.008 0.03 12.9822 2.09153 5.89796 -36.2001 100.456 55.0803 -1 2 1 -0.0144241 0.0152756 -0.00925121 -12.0007 -0.0313903 25.1724 
5269 330 2 12.01 0.11 16.3181 3.56575 6.94177 65.5004 -45.6166 -42.2406 1 -1 -1 0.00556502 0.00408826 0.000851515 -40.8976 -30.2025 -9.80779 
4220 264 3 1.008 0.03 11.0436 4.81463 1.29656 11.0436 -44.3677 -97.0681 0 -1 -2 -0.0104172 0.0298232 -0.0113612 13.4796 4.03284 6.48851 
7904 494 3 1.008 0.03 11.6953 0.973978 6.50043 -37.4871 99.3387 55.6828 -1 2 1 0.022748 0.0190451 -0.0209861 -3.68974 3.51985 -12.5155 
4014 251 3 1.008 0.03 10.3687 8.20317 6.86674 59.551 57.3855 154.414 1 1 3 0.0122797 -0.0107233 0.014057 13.2481 -4.84441 24.8199 
9644 604 8 19 -0.16 13.1778 7.89068 0.804339 13.1778 57.073 0.804339 0 1 0 -0.00258734 -0.00580583 0.000650789 -2.79144 -6.26667 8.97352 
5275 330 3 1.008 0.03 15.5504 4.27397 6.71846 64.7328 -44.9084 -42.4639 1 -1 -1 0.00228154 -0.0174895 -0.0345873 -7.57467 15.8807 1.86539 
7890 494 1 16 -0.4 13.633 0.44964 6.87722 -35.5493 98.8143 56.0596 -1 2 1 -0.00795114 -1.26493e-05 0.0104986 7.65399 13.8818 -19.7908 
7930 496 3 1.008 0.03 9.10783 4.84965 7.2375 9.10783 4.84965 56.4198 0 0 1 0.0134323 0.0111523 0.0374777 12.1025 -8.9865 -1.97098 
4016 251 3 1.008 0.03 12.0808 8.49412 7.41688 61.2631 57.6765 154.964 1 1 3 0.0140276 0.00369491 -0.0234814 -30.0001 -30.7101 9.18149 
5691 356 3 1.008 0.03 24.0984 2.38018 5.80882 24.0984 149.927 54.9912 0 3 1 -0.0019223 0.0104685 0.0171658 -7.69596 5.69925 -2.5346 
9757 612 4 14.01 -0.66 17.1917 1.39263 1.95418 -31.9907 50.575 1.95418 -1 1 0 0.00131213 0.00137287 -0.00232084 30.2312 -9.76091 -18.8808 
5264 329 3 1.008 0.03 16.9294 5.85852 2.18596 -32.253 55.0409 2.18596 -1 1 0 0.0165353 0.00178067 -0.0231191 -21.245 22.8216 -2.04211 
5271 330 3 1.008 0.03 18.0905 4.51964 5.41268 67.2728 -44.6627 -43.7697 1 -1 -1 -0.00408193 -0.00316786 -0.00381399 3.15581 17.0238 11.8139 
5267 330 2 12.01 0.14 18.023 5.05942 6.38839 67.2054 -44.1229 -42.794 1 -1 -1 0.00173102 -0.000478141 0.00199779 38.1327 -2.17542 -1.66421 
2371 149 2 12.01 0.14 20.6224 0.481069 6.46293 20.6224 49.6634 6.46293 0 1 0 -0.00178374 -0.0021039 -0.00451943 -31.2161 -25.7681 -29.2923 
5272 330 3 1.008 0.03 17.3767 5.91981 6.30854 66.5591 -43.2625 -42.8738 1 -1 -1 -0.00268674 -0.00867843 0.00257178 -5.77661 5.60273 -4.18475 
5265 330 1 16 -0.4 17.5106 4.15381 7.30756 66.693 -45.0285 -41.8748 1 -1 -1 0.00250606 0.00566891 0.00507466 12.2651 -3.92906 22.0387 
5250 329 1 16 -0.4 17.301 7.75062 2.98093 -31.8813 56.933 2.98093 -1 1 0 0.000246367 0.000776531 0.000585135 4.45164 -21.2684 2.85035 
5266 330 1 16 -0.4 20.3023 4.37636 7.11447 69.4846 -44.806 -42.0679 1 -1 -1 0.00559986 -0.00232894 -0.000258907 -18.8206 -12.4489 -5.01615 
5252 329 2 12.01 0.14 18.6725 7.37524 2.82277 -30.5098 56.5576 2.82277 -1 1 0 0.00535323 0.00107171 -0.0104727 -11.8831 7.9937 -13.1471 
5268 330 2 12.01 0.14 19.4335 5.49617 6.99145 68.6159 -43.6862 -42.1909 1 -1 -1 -0.00315299 0.0101211 -0.00191802 -9.60892 -16.7317 5.26541 
5258 329 3 1.008 0.03 18.939 6.34094 3.10048 -30.2433 55.5233 3.10048 -1 1 0 -0.00353685 -0.0203576 -0.00143469 -8.49671 7.30426 2.83788 
9768 612 7 12.01 0.35 19.1688 2.98162 1.21993 -30.0136 52.164 1.21993 -1 1 0 0.000819698 0.00632266 -0.00128725 -17.9781 12.9224 24.8112 
5255 329 3 1.008 0.03 20.5093 7.95191 3.77355 -28.6731 57.1343 3.77355 -1 1 0 0.0109676 -0.01122 0.00495241 10.5589 -3.26631 -8.37133 
9702 608 8 19 -0.16 24.9891 1.057 0.539701 -24.1932 50.2393 0.539701 -1 1 0 0.00202005 -0.00216185 0.000124184 -3.74219 6.7752 -11.2478 
9767 612 6 16 -0.53 19.5131 0.620299 2.17795 -29.6692 49.8026 2.17795 -1 1 0 0.00278585 0.00709239 0.00235423 18.8261 -16.5766 33.5881 
5908 370 2 12.01 0.14 22.6726 0.737937 2.47694 22.6726 49.9203 2.47694 0 1 0 0.000224127 -0.00395996 -0.000401097 -18.2309 9.17181 -20.0631 
5912 370 3 1.008 0.03 23.7815 2.23509 3.72181 23.7815 51.4174 3.72181 0 1 0 -0.0133896 0.00757196 0.000999466 -29.7003 -10.0365 -38.6611 
2369 149 1 16 -0.4 20.0539 0.804069 5.15963 20.0539 49.9864 5.15963 0 1 0 -0.00219034 0.00649029 -0.00504996 15.6243 -9.56143 12.9689 
2379 149 3 1.008 0.03 18.5607 1.77148 6.05548 18.5607 50.9538 6.05548 0 1 0 0.018519 0.00969186 -0.0325083 -30.8556 8.43816 17.2469 
2373 149 2 12.01 0.11 19.2155 1.94308 5.25962 19.2155 51.1254 5.25962 0 1 0 0.00255662 -0.00187089 -0.0106627 43.6263 15.2262 -28.7791 
2380 149 3 1.008 0.03 19.7708 2.90232 5.34831 19.7708 52.0847 5.34831 0 1 0 0.0247175 0.0209241 -0.00256742 -6.40124 -20.427 7.26155 
2381 149 3 1.008 0.03 18.7448 2.04221 4.29737 18.7448 51.2246 4.29737 0 1 0 -0.0218073 0.00187757 0.00852602 -16.4785 -0.02997 -0.822567 
5905 370 1 16 -0.4 21.8175 2.67379 3.50607 21.8175 51.8561 3.50607 0 1 0 -0.000565061 0.00200182 -0.00519555 -6.00011 10.9947 0.876956 
5917 370 3 1.008 0.03 21.1804 4.33745 4.45795 21.1804 53.5198 4.45795 0 1 0 0.00441309 -0.0230531 0.0159008 -10.091 10.387 18.379 
5907 370 2 12.01 0.14 22.9732 2.1639 2.8981 22.9732 51.3463 2.8981 0 1 0 0.000648636 0.00182097 0.00406457 31.6566 9.44955 47.9485 
5909 370 2 12.01 0.11 21.9539 4.07056 3.79003 21.9539 53.2529 3.79003 0 1 0 0.00539025 -0.0047204 0.00175772 -24.4356 -25.1376 -37.8705 
5915 370 3 1.008 0.03 22.9033 4.34487 4.13328 22.9033 53.5272 4.13328 0 1 0 0.000409937 0.00566484 -0.0104209 25.9222 8.98574 16.0107 
8059 504 3 1.008 0.03 21.5167 8.32367 5.81383 70.699 57.506 104.179 1 1 2 0.00168293 0.00684658 -0.0196088 5.26043 -4.85033 8.04942 
2375 149 3 1.008 0.03 21.6342 0.826908 6.59129 21.6342 50.0093 6.59129 0 1 0 -0.0117428 -0.019513 0.0277515 7.40876 5.23426 2.74996 
9769 612 8 19 -0.16 19.151 3.52324 2.43712 -30.0314 52.7056 2.43712 -1 1 0 -3.97057e-05 0.00252962 -0.00131185 9.51368 -9.69889 -2.40572 
5916 370 3 1.008 0.03 21.7405 4.61609 2.86962 21.7405 53.7984 2.86962 0 1 0 -0.0103356 -0.0182909 -0.0257775 4.14695 1.80169 0.297585 
5257 329 3 1.008 0.03 18.7662 7.44725 1.72809 -30.4161 56.6296 1.72809 -1 1 0 0.00558159 0.00940809 0.0175442 20.4903 -0.181644 7.39517 
2376 149 3 1.008 0.03 19.9462 0.798439 7.24881 19.9462 49.9808 7.24881 0 1 0 -0.0107849 -0.00881401 0.0461229 10.4047 10.2632 12.0987 
9765 612 5 32.06 1.02 18.598 1.22399 1.25848 -30.5843 50.4063 1.25848 -1 1 0 -0.000803099 0.00288134 0.00109869 -29.4655 44.9699 27.2993 
5911 370 3 1.008 0.03 23.3675 2.75656 2.08044 23.3675 51.9389 2.08044 0 1 0 0.010466 -0.00807113 0.00821148 -5.90085 3.77458 -7.00105 
9770 612 8 19 -0.16 20.3791 3.00988 0.787461 -28.8033 52.1922 0.787461 -1 1 0 0.00507469 -0.00264534 -0.0016439 34.7322 7.54517 -2.51563 
5913 370 3 1.008 0.03 21.8369 0.589203 1.76943 21.8369 49.7716 1.76943 0 1 0 0.0298971 0.00875995 0.0167062 22.0574 16.9926 -3.384 
8063 504 3 1.008 0.03 23.663 8.46037 2.63854 72.8453 57.6427 101.003 1 1 2 -0.0198962 -0.0186364 0.00269159 -8.57917 -11.4769 -6.05886 
8056 504 3 1.008 0.03 23.7307 7.88744 4.75989 72.913 57.0698 103.125 1 1 2 -0.0200625 -0.0207191 -0.00775173 10.6134 -4.75355 8.77052 
8055 504 3 1.008 0.03 24.5836 8.56474 6.18529 73.7659 57.7471 104.55 1 1 2 0.00471649 0.0145505 -0.00673821 6.93438 -18.0956 32.0579 
5273 330 3 1.008 0.03 19.9353 6.20665 6.3836 69.1177 -42.9757 -42.7987 1 -1 -1 0.00798497 -0.0125163 3.64427e-05 1.63976 14.0962 -17.9368 
5251 329 2 12.01 0.14 19.5448 8.38436 3.56315 -29.6376 57.5667 3.56315 -1 1 0 0.00433246 -0.00188124 -0.00668077 -2.73502 -21.4244 -2.70102 
5681 356 1 16 -0.4 24.2329 0.54364 6.81662 24.2329 148.091 55.999 0 3 1 0.00611389 -0.00321425 0.00121345 8.25036 33.7835 9.5235 
5914 370 3 1.008 0.03 23.5623 0.461035 1.98241 23.5623 49.6434 1.98241 0 1 0 -0.0114741 0.0376307 -0.00119021 13.5796 -23.8232 -6.96442 
5685 356 2 12.01 0.11 24.6566 1.91367 6.5977 24.6566 149.461 55.78 0 3 1 0.00383282 0.00342774 -0.00387157 31.7088 -27.6718 5.98734 
3293 206 3 1.008 0.03 21.7412 8.46839 0.566324 -76.6235 -40.714 49.7487 -2 -1 1 0.0173931 -0.00731198 0.00465506 1.91476 8.50749 11.0203 
6704 419 3 1.008 0.03 24.5804 4.92381 0.682644 24.5804 4.92381 -48.4997 0 0 -1 0.0129705 -0.00364854 0.00874163 10.1348 3.78582 4.0731 
5279 330 3 1.008 0.03 22.0266 5.35581 6.85163 71.209 -43.8265 -42.3307 1 -1 -1 -0.000781405 0.000834131 -0.0133327 7.4695 7.79972 -0.681383 
9771 612 8 19 -0.16 18.5221 3.88796 0.504908 -30.6603 53.0703 0.504908 -1 1 0 -0.00236107 0.00225096 0.00511991 -14.9036 -19.1606 -12.7509 
10122 636 8 19 -0.16 7.72346 8.65481 6.49028 7.72346 8.65481 55.6726 0 0 1 -0.00288643 0.00154275 -0.00249916 29.2772 -9.93562 -7.37947 
3784 237 3 1.008 0.03 4.45359 12.7848 1.00899 4.45359 61.9672 1.00899 0 1 0 -0.0188139 -0.00748342 -0.0176693 1.89113 -4.19864 4.89045 
9858 618 7 12.01 0.35 0.538063 15.4441 6.2847 49.7204 64.6265 6.2847 1 1 0 0.00240874 0.00440795 -0.00949665 6.30709 -14.1937 -18.3399 
10119 636 6 16 -0.53 4.43711 9.8885 7.42518 4.43711 9.8885 56.6075 0 0 1 0.00203686 0.00761469 0.00686969 -52.5289 46.2944 -20.4743 
2419 152 2 12.01 0.14 7.1531 11.2382 0.439731 -140.394 60.4205 98.8044 -3 1 2 -0.00818991 0.00208645 -0.00357335 20.5741 -1.34032 -9.22988 
3790 237 3 1.008 0.03 2.45986 9.25753 0.767539 2.45986 58.4399 0.767539 0 1 0 0.00508927 -0.0143491 0.017494 -27.73 12.2815 1.94609 
2428 152 3 1.008 0.03 6.41936 8.81657 0.496596 -141.128 57.9989 98.8613 -3 1 2 -0.0312491 0.0120256 -0.0141184 3.77482 -22.806 -7.82196 
3656 229 3 1.008 0.03 1.46835 9.37664 4.87203 1.46835 58.559 4.87203 0 1 0 -0.0288194 0.00917163 0.00297638 11.1084 2.27558 1.39698 
9855 618 5 32.06 1.02 1.9888 14.5808 5.43858 51.1712 63.7632 5.43858 1 1 0 0.000652185 0.00178189 0.00311116 -47.4264 -31.5428 -10.5304 
10466 677 9 24.305 2 1.6293 12.421 2.83724 1.6293 61.6034 2.83724 0 1 0 -0.0048833 -0.000594421 -0.00451946 -1.36496 13.6136 -7.74753 
2417 152 1 16 -0.4 5.90323 10.6973 0.695846 -141.644 59.8797 99.0605 -3 1 2 0.00187906 -0.00246243 0.00192731 -26.6427 5.76312 -5.77583 
2421 152 2 12.01 0.11 5.95497 9.40449 1.24927 -141.592 58.5868 99.614 -3 1 2 0.00842316 0.00611162 0.00425222 -29.9175 22.6117 -0.921464 
3791 237 3 1.008 0.03 0.726443 9.38991 1.54316 0.726443 58.5723 1.54316 0 1 0 -0.0110225 -0.00812528 0.00411439 47.4793 23.8054 -19.8749 
2423 152 3 1.008 0.03 7.63154 11.2834 1.40421 -139.916 60.4657 99.7689 -3 1 2 -0.00180229 0.00132654 -0.00658448 14.3498 3.03374 3.73281 
10124 636 8 19 -0.16 6.18777 9.00347 5.05156 6.18777 9.00347 54.2339 0 0 1 -0.00212348 0.00187058 -0.00596305 -1.51041 1.208 20.2356 
2429 152 3 1.008 0.03 6.48249 9.34888 2.17933 -141.065 58.5312 100.544 -3 1 2 -0.00132712 0.00531659 0.00112715 4.88041 2.52889 7.92957 
3663 229 3 1.008 0.03 5.21755 11.6752 2.90886 5.21755 60.8576 2.90886 0 1 0 0.00277431 -0.0164085 -0.00868186 -2.42077 2.75302 -4.70791 
9847 618 4 14.01 -0.66 2.84181 15.7982 5.01177 52.0242 64.9806 5.01177 1 1 0 0.00534609 0.00300062 0.0122109 -3.0354 -3.58775 -11.6226 
3664 229 3 1.008 0.03 4.91964 13.3294 3.4778 4.91964 62.5117 3.4778 0 1 0 -0.0054863 0.0133181 0.0178309 -8.37 7.04841 -5.4857 
3654 229 2 12.01 0.11 4.67821 12.2853 3.6304 4.67821 61.4677 3.6304 0 1 0 -2.97973e-05 0.00462494 0.00778511 26.8868 -18.0137 19.4082 
3650 229 1 16 -0.4 3.31829 11.9167 3.73332 3.31829 61.0991 3.73332 0 1 0 0.00465984 -0.00101998 -0.00135033 -7.23123 -7.24809 -8.8974 
9851 618 7 12.01 0.35 5.22297 16.683 5.36897 54.4053 65.8653 5.36897 1 1 0 -0.00732555 0.00147403 0.000999294 33.1832 -77.8996 -29.287 
3662 229 3 1.008 0.03 5.175 12.0353 4.57264 5.175 61.2177 4.57264 0 1 0 0.0054874 -0.00538315 0.0146647 -2.80077 2.62342 0.154775 
10121 636 7 12.01 0.35 6.65597 9.34883 6.26475 6.65597 9.34883 55.4471 0 0 1 -0.00637664 -0.00823113 -0.00479726 -23.2372 25.6714 -12.4956 
9852 618 8 19 -0.16 5.75747 15.4384 5.57026 54.9398 64.6208 5.57026 1 1 0 0.00267794 0.00255396 -0.00513817 -25.2837 32.9244 4.49578 
3787 237 3 1.008 0.03 2.61006 15.6972 2.64607 2.61006 64.8795 2.64607 0 1 0 -0.0111647 -0.00491483 -0.00931706 -0.062305 -5.96782 -12.8628 
10123 636 8 19 -0.16 6.99554 10.6413 6.20019 6.99554 10.6413 55.3825 0 0 1 -0.00438789 0.00183737 -0.00299872 3.19046 -12.6153 -4.1402 
3658 229 3 1.008 0.03 3.27637 9.93405 3.19817 3.27637 59.1164 3.19817 0 1 0 0.000697198 -0.0014701 0.00122967 -2.68296 -16.8859 -27.4869 
3652 229 2 12.01 0.14 3.18842 10.5235 4.05512 3.18842 59.7059 4.05512 0 1 0 0.000582323 -0.00535391 -0.000102894 -28.0796 12.884 35.7525 
3657 229 3 1.008 0.03 3.88755 10.0827 4.74322 3.88755 59.2651 4.74322 0 1 0 0.0237749 0.00634431 0.0154702 13.9283 6.66303 6.4709 
3781 237 2 12.01 0.11 3.03906 15.1538 1.79021 3.03906 64.3361 1.79021 0 1 0 0.0027006 0.000438928 -0.000166469 4.95867 -16.7511 14.8226 
3777 237 1 16 -0.4 2.71184 13.7071 1.82799 2.71184 62.8894 1.82799 0 1 0 0.00454408 -0.000819551 0.00407573 27.5151 16.0519 -29.63 
3778 237 1 16 -0.4 1.91476 11.215 1.3166 1.91476 60.3973 1.3166 0 1 0 0.000573269 -0.00669501 -0.00152669 -0.460517 -4.82691 -8.39109 
3788 237 3 1.008 0.03 4.12713 15.3951 1.80762 4.12713 64.5775 1.80762 0 1 0 0.0175842 -0.0044249 0.00561827 -14.5007 -10.7294 1.72773 
2418 152 1 16 -0.4 6.73006 13.5897 0.667693 -140.817 62.772 99.0324 -3 1 2 -0.000897815 0.00536702 -0.00281346 -15.3811 14.0644 -6.35362 
3782 237 2 12.01 0.11 1.52786 9.89518 0.854935 1.52786 59.0775 0.854935 0 1 0 -0.00236874 -0.00187989 -0.000129427 -40.092 -39.7692 16.134 
3651 229 2 12.01 0.14 1.80278 10.4176 4.76441 1.80278 59.6 4.76441 0 1 0 0.000645728 -0.00253808 0.00300933 21.7313 -4.8964 25.7889 
3655 229 3 1.008 0.03 1.84019 10.8685 5.81397 1.84019 60.0508 5.81397 0 1 0 -0.0192034 -0.0149708 0.00874316 -2.02546 -11.0555 -32.6562 
9857 618 6 16 -0.53 1.42288 13.7528 4.33872 50.6052 62.9351 4.33872 1 1 0 -0.0011642 0.00299105 0.00283933 8.47507 49.2153 17.6224 
8105 507 3 1.008 0.03 7.29256 15.2038 3.45801 56.4749 15.2038 101.823 1 0 2 0.000793438 0.013408 -0.014242 5.94943 -2.62439 -6.83491 
8112 507 3 1.008 0.03 7.43256 12.8434 4.90816 56.6149 12.8434 103.273 1 0 2 -0.00486232 -0.0234261 0.00976628 -16.8907 6.9966 0.991192 
8100 507 2 12.01 0.14 8.39156 15.1871 3.49587 57.5739 15.1871 101.861 1 0 2 -0.000200417 0.0028025 -0.00507671 -23.1065 39.8584 36.4116 
9856 618 6 16 -0.53 2.5675 13.7651 6.44264 51.7498 62.9475 6.44264 1 1 0 0.00158252 0.00316984 -0.00304282 14.0463 -10.9531 23.4527 
3649 229 1 16 -0.4 0.896268 11.0689 3.92229 0.896268 60.2513 3.92229 0 1 0 -0.00014148 -0.00158529 0.00116935 -10.0742 -4.19446 -3.64915 
9646 604 6 16 -0.53 8.5594 8.63903 3.27919 8.5594 57.8214 3.27919 0 1 0 -0.00192163 -0.000308214 -0.00284534 -0.451799 11.6278 12.5256 
8110 507 3 1.008 0.03 8.55176 12.9055 3.52542 57.7341 12.9055 101.89 1 0 2 -0.0105257 -0.0221785 0.0133508 -6.26887 -16.0495 7.98497 
8102 507 2 12.01 0.11 8.40496 13.1505 4.58673 57.5873 13.1505 102.951 1 0 2 -0.00700213 -0.00152519 0.00338732 18.2561 -26.0134 -21.8104 
3789 237 3 1.008 0.03 2.66206 15.6075 0.87822 2.66206 64.7899 0.87822 0 1 0 0.0151922 -0.00922248 0.00739451 -5.89315 1.56976 -0.827149 
2430 152 3 1.008 0.03 6.04242 15.6334 0.490091 -141.505 64.8158 98.8548 -3 1 2 -0.0562204 0.00131409 -0.00436266 16.6248 -7.19443 2.28031 
9850 618 6 16 -0.53 3.5719 16.5098 7.34107 52.7542 65.6921 7.34107 1 1 0 -0.00154935 -0.00330613 -0.00267085 8.2692 -2.73384 19.6724 
3779 237 2 12.01 0.14 3.45776 13.0786 0.716741 3.45776 62.261 0.716741 0 1 0 -0.00953424 -0.00553173 -0.00277502 -50.8178 11.7026 12.0652 
2427 152 3 1.008 0.03 4.89059 9.16199 1.44998 -142.656 58.3443 99.8147 -3 1 2 0.0176566 0.0275022 0.00560736 15.731 -7.43254 -5.17995 
9861 618 8 19 -0.16 0.903837 15.9735 7.42404 50.0862 65.1559 7.42404 1 1 0 0.00642143 0.00060212 0.0045991 -0.467778 3.89679 12.9521 
2855 179 3 1.008 0.03 7.44986 14.4176 7.3639 7.44986 14.4176 56.5463 0 0 1 -0.0188102 -0.00671995 0.0242719 -15.9533 4.38914 16.3428 
7804 488 3 1.008 0.03 16.2243 13.9655 0.598405 65.4066 13.9655 0.598405 1 0 0 -0.00920548 0.00617927 -0.000211427 -8.18749 1.13484 16.5241 
8106 507 3 1.008 0.03 8.79657 14.7855 2.63372 57.9789 14.7855 100.998 1 0 2 -0.0124767 -0.0104807 0.0210067 11.6001 -17.0684 -34.1996 
4956 310 3 1.008 0.03 12.8128 12.3186 7.32878 61.9952 12.3186 7.32878 1 0 0 0.017597 0.0114683 -0.00432482 -24.0238 -22.1424 -1.69245 
9640 604 6 16 -0.53 12.7341 10.3985 2.2791 12.7341 59.5809 2.2791 0 1 0 -0.00293049 -0.00193584 -5.92752e-05 -12.1556 -1.07447 -13.8099 
9637 604 4 14.01 -0.66 10.5145 9.15486 1.80527 10.5145 58.3372 1.80527 0 1 0 0.00138247 -0.00350076 0.00516308 18.9456 2.93268 -0.324331 
9645 604 5 32.06 1.02 9.92143 9.11547 3.27971 9.92143 58.2978 3.27971 0 1 0 -0.00250228 0.00403825 0.00489103 16.7092 -18.7672 -53.3452 
8111 507 3 1.008 0.03 9.08231 12.4774 5.10816 58.2647 12.4774 103.473 1 0 2 0.00818417 -0.00445413 -0.000551878 5.01004 7.60271 5.12976 
8098 507 1 16 -0.4 8.73046 14.5 4.68583 57.9128 14.5 103.051 1 0 2 0.00602881 0.0064279 -0.00138124 7.66542 3.55558 5.89162 
4959 310 3 1.008 0.03 12.6222 14.7728 1.46316 61.8046 14.7728 1.46316 1 0 0 -0.0256826 0.000726068 0.00109961 -2.66719 -1.13404 -4.52936 
7807 488 3 1.008 0.03 13.6232 10.6223 5.17575 62.8056 10.6223 5.17575 1 0 0 0.0258981 -0.00116514 0.00329639 -7.48988 4.04296 10.9528 
7796 488 2 12.01 0.14 16.0242 10.6072 2.95863 65.2066 10.6072 2.95863 1 0 0 -0.000754642 0.00570954 0.00471681 -18.6303 58.5488 29.9591 
9647 604 6 16 -0.53 10.3483 10.2188 4.06212 10.3483 59.4011 4.06212 0 1 0 -0.0020578 -0.00221275 -0.00554306 -12.9688 24.7504 32.6244 
4953 310 3 1.008 0.03 11.5515 12.8751 3.6843 60.7339 12.8751 3.6843 1 0 0 0.00348747 0.00649969 -0.00576975 7.80635 14.3921 -14.6361 
4954 310 3 1.008 0.03 11.3291 14.534 3.36355 60.5115 14.534 3.36355 1 0 0 0.007427 -0.00887336 -0.0133076 23.2448 1.5478 0.99348 
4948 310 2 12.01 0.14 12.1258 13.832 3.70313 61.3081 13.832 3.70313 1 0 0 -0.00630747 0.00316537 -0.00395356 -47.947 -53.0246 24.5618 
4946 310 1 16 -0.4 13.2997 13.5292 3.00513 62.4821 13.5292 3.00513 1 0 0 0.00501276 -0.000413726 0.00770117 2.63306 11.5525 -27.8078 
7794 488 1 16 -0.4 15.0365 11.2741 3.83844 64.2189 11.2741 3.83844 1 0 0 0.00114999 -0.00528355 -0.00667401 20.8039 -21.4695 -20.07 
4945 310 1 16 -0.4 13.6116 13.0948 5.49877 62.794 13.0948 5.49877 1 0 0 0.00336884 0.00227474 0.00210072 -3.42325 -5.54841 -5.16438 
10454 665 9 24.305 2 14.9753 13.2201 4.00863 64.1576 13.2201 4.00863 1 0 0 -0.00401689 0.00180055 0.00241635 -19.2279 -14.316 -7.41625 
4949 310 2 12.01 0.11 13.6106 12.8554 6.91913 62.793 12.8554 6.91913 1 0 0 -0.00467976 -0.00476596 0.00480973 0.783478 33.1324 -19.5954 
4957 310 3 1.008 0.03 14.4769 12.3537 7.24935 63.6593 12.3537 7.24935 1 0 0 0.0132729 0.00131462 -0.00205714 22.4771 -4.63667 7.53771 
4947 310 2 12.01 0.14 12.3957 13.7841 5.18048 61.5781 13.7841 5.18048 1 0 0 -0.00480335 0.00339941 -0.00281668 -7.34838 31.773 27.1909 
9826 616 6 16 -0.53 15.0735 15.2339 4.22033 64.2558 15.2339 4.22033 1 0 0 0.00198315 -0.00350983 0.00470347 -7.36153 -20.5313 3.02922 
4952 310 3 1.008 0.03 12.4578 14.8349 5.53902 61.6401 14.8349 5.53902 1 0 0 0.00235734 0.0096575 -0.0172811 1.31065 -13.9581 -3.25125 
4951 310 3 1.008 0.03 11.5324 13.3511 5.72312 60.7148 13.3511 5.72312 1 0 0 0.0164768 -0.0300891 -0.0196747 7.03195 2.49271 -10.2323 
7806 488 3 1.008 0.03 15.2724 10.001 5.503 64.4547 10.001 5.503 1 0 0 -0.00600323 -0.0342395 0.0224174 -6.12942 4.69057 -7.55297 
7798 488 2 12.01 0.11 14.5328 10.2692 4.73414 63.7152 10.2692 4.73414 1 0 0 0.0025317 0.00379049 -0.00398614 1.39506 -32.3277 -12.5537 
7808 488 3 1.008 0.03 14.2287 9.28173 4.25819 63.4111 9.28173 4.25819 1 0 0 0.00425682 -0.0112457 0.0225102 11.1726 29.6303 6.49909 
7793 488 1 16 -0.4 16.3788 12.9618 2.5185 65.5612 12.9618 2.5185 1 0 0 0.00584558 0.00709509 0.00526731 -29.4908 13.8448 30.3415 
7801 488 3 1.008 0.03 15.5278 9.83771 2.41798 64.7101 9.83771 2.41798 1 0 0 0.00115129 -0.000944199 0.00482465 1.19479 -22.2578 -7.3823 