ITEM: TIMESTEP
300000
ITEM: NUMBER OF ATOMS
10479
ITEM: BOX BOUNDS pp pp pp
4.0882558190751794e-01 4.9591174418091420e+01
4.0882558190751794e-01 4.9591174418091420e+01
4.0882558190751794e-01 4.9591174418091420e+01
ITEM: ATOMS id mol type mass q x y z xu yu zu ix iy iz vx vy vz fx fy fz 
8781 549 3 1.008 0.03 0.767546 8.12653 4.05275 -48.4148 -41.0558 4.05275 -1 -1 0 0.0127793 -0.00573063 -0.0337701 -16.7271 -6.91899 3.80827 
8769 549 1 16 -0.4 1.75245 6.47152 5.07626 -47.4299 -42.7108 5.07626 -1 -1 0 0.00437297 0.00311179 -0.00507631 -39.2913 20.1048 36.7447 
5797 363 2 12.01 0.11 7.91453 5.71538 1.33637 57.0969 54.8977 99.7011 1 1 2 -0.00430474 -0.00151912 -0.00626981 37.3714 27.0121 12.1228 
5805 363 3 1.008 0.03 8.09846 4.76043 1.84883 57.2808 53.9428 100.214 1 1 2 0.015644 -0.0278438 0.00100081 3.16537 5.44372 -5.98156 
5799 363 3 1.008 0.03 6.42688 6.99116 2.98851 55.6092 56.1735 101.353 1 1 2 0.0276693 0.0234427 0.00468401 0.189797 3.4348 11.0243 
8780 549 3 1.008 0.03 2.43975 7.97056 3.82421 -46.7426 -41.2118 3.82421 -1 -1 0 -0.021315 -0.00060042 -0.0286712 -6.08975 -12.0228 2.8292 
8773 549 2 12.01 0.11 1.65101 7.78485 4.5642 -47.5313 -41.3975 4.5642 -1 -1 0 -0.00193854 0.00469627 0.0102331 57.5429 38.9834 9.19981 
8771 549 2 12.01 0.14 0.812082 6.50882 6.21679 -48.3703 -42.6735 6.21679 -1 -1 0 -0.00488527 0.00114939 0.0032399 32.9593 -78.3899 -18.3454 
5803 363 3 1.008 0.03 6.88513 5.84669 1.2822 56.0675 55.029 99.6469 1 1 2 0.0184697 -0.00976844 -0.0184665 -35.0239 -9.27371 -22.2409 
7687 481 3 1.008 0.03 5.12807 5.80022 4.86108 5.12807 104.165 54.0434 0 2 1 0.00727603 -0.00243341 -0.0258429 1.22318 11.7148 9.03552 
7681 481 1 16 -0.4 5.96891 4.17299 5.64745 5.96891 102.538 54.8298 0 2 1 -0.00153266 -0.0015698 -0.000283424 2.46151 -27.4404 7.18853 
7691 481 3 1.008 0.03 6.23729 2.21976 4.90059 6.23729 100.584 54.0829 0 2 1 -0.00282195 0.0413691 -0.0415088 -6.19532 3.93684 -3.25848 
7683 481 2 12.01 0.14 4.99374 5.18732 5.75348 4.99374 103.552 54.9358 0 2 1 -0.00565313 -0.00275474 0.00090916 -16.8774 -25.1382 -48.771 
8775 549 3 1.008 0.03 0.870011 7.3165 6.8913 -48.3123 -41.8659 6.8913 -1 -1 0 0.00158651 0.0115219 -0.0134599 11.9231 18.925 16.6439 
7685 481 2 12.01 0.11 5.77199 3.17749 4.62437 5.77199 101.542 53.8067 0 2 1 0.0021481 0.000649105 -0.00106909 20.5278 42.756 -15.554 
7693 481 3 1.008 0.03 6.28771 3.61137 3.72226 6.28771 101.976 52.9046 0 2 1 0.00189098 0.0142176 -0.0180179 -8.45086 -16.1065 17.6271 
7692 481 3 1.008 0.03 4.73481 3.10969 4.32083 4.73481 101.474 53.5032 0 2 1 -0.00131581 0.0254853 0.0181555 -6.11806 -11.1979 3.92789 
5484 343 3 1.008 0.03 0.961956 0.951215 4.11852 -97.4027 99.3159 102.483 -2 2 2 0.00349566 0.00125519 0.0121528 -1.59065 -1.72536 -4.12404 
5479 343 3 1.008 0.03 2.20912 3.70175 3.2298 -96.1556 102.066 101.595 -2 2 2 -0.00616891 0.00438782 0.0287203 -3.32002 -7.0748 9.06268 
1287 81 3 1.008 0.03 7.44254 2.23261 1.66635 7.44254 51.415 1.66635 0 1 0 0.0114254 0.0116221 0.011603 -15.6924 -20.3525 -21.92 
5476 343 2 12.01 0.14 0.574878 4.00269 1.93782 -97.7898 102.367 100.303 -2 2 2 0.00204461 0.00172879 -0.00522532 -28.1462 -35.9403 -9.93999 
7688 481 3 1.008 0.03 3.96463 4.81019 5.60601 3.96463 103.175 54.7884 0 2 1 -0.0196718 -0.00600954 -0.0103515 10.3725 -2.69724 8.9204 
5795 363 2 12.01 0.14 7.45698 6.87916 3.34595 56.6393 56.0615 101.711 1 1 2 -0.000373252 -0.00147624 -0.00125237 2.54635 38.7993 -49.0796 
5793 363 1 16 -0.4 8.25684 6.87152 2.14056 57.4392 56.0539 100.505 1 1 2 0.00709977 -0.00280095 -0.00147662 -7.05225 -32.0839 5.54736 
5800 363 3 1.008 0.03 7.48448 6.00277 3.90308 56.6668 55.1851 102.268 1 1 2 -0.00921559 0.0124742 -0.00746826 7.82651 -30.0585 18.9282 
5482 343 3 1.008 0.03 1.41984 4.29379 1.29564 -96.9449 102.658 99.6603 -2 2 2 0.00407151 -0.00916561 -0.0188171 -14.6539 17.6003 -1.4362 
5485 343 3 1.008 0.03 1.82072 1.9085 5.20965 -96.544 100.273 103.574 -2 2 2 0.0258502 -0.0307811 0.0234779 14.5806 10.7387 10.025 
1281 81 1 16 -0.4 6.11652 0.752815 0.875472 6.11652 49.9352 0.875472 0 1 0 -0.0105454 0.00295832 -0.00223013 -23.6529 5.98327 -18.4783 
5480 343 3 1.008 0.03 1.53441 2.27144 2.41007 -96.8303 100.636 100.775 -2 2 2 -0.000371195 0.0231925 -0.00395794 8.38559 -8.58308 2.79016 
5473 343 1 16 -0.4 0.429958 2.90371 4.0254 -97.9347 101.268 102.39 -2 2 2 0.00357748 0.00255791 0.00364314 -15.0306 12.9212 10.2935 
5796 363 2 12.01 0.14 7.88542 8.10528 4.13095 57.0678 57.2876 102.496 1 1 2 -0.00395475 0.00101993 0.00189984 -0.249513 13.4613 -1.78328 
5802 363 3 1.008 0.03 7.27703 8.12657 5.03003 56.4594 57.3089 103.395 1 1 2 -0.0199676 0.0246699 0.00737412 -6.11183 11.469 -0.446288 
1283 81 2 12.01 0.14 7.18057 1.63589 0.733331 7.18057 50.8182 0.733331 0 1 0 0.000538483 0.00378532 0.00171763 14.3214 37.4652 70.376 
8772 549 2 12.01 0.14 0.868012 5.0995 6.98132 -48.3143 -44.0828 6.98132 -1 -1 0 -0.00182492 -0.00596157 -0.00256724 -30.5963 45.4034 7.7982 
5475 343 2 12.01 0.14 1.28856 3.16566 2.96543 -97.0761 101.53 101.33 -2 2 2 0.00450518 0.00377747 -0.00200848 7.54381 3.98357 -23.6523 
8779 549 3 1.008 0.03 1.96613 8.51763 5.38105 -47.2162 -40.6647 5.38105 -1 -1 0 -0.00619036 0.00859398 0.00919011 -16.1397 -18.0453 -24.9443 
1293 81 3 1.008 0.03 5.81007 0.757716 2.95516 5.81007 49.9401 2.95516 0 1 0 0.0161607 -0.0202197 -0.0157327 10.5971 -9.46479 -8.8705 
4784 299 3 1.008 0.03 8.32083 2.12869 6.56443 155.868 2.12869 -42.6179 3 0 -1 -0.00136196 -0.0109027 0.0255901 -1.00178 7.15458 4.51612 
5477 343 2 12.01 0.11 0.857708 1.81488 4.76725 -97.507 100.18 103.132 -2 2 2 0.00233294 0.00453054 -0.00109954 -0.661554 -36.045 -3.19453 
4780 299 3 1.008 0.03 4.48145 0.958781 6.74817 152.029 0.958781 -42.4342 3 0 -1 -0.0186936 -0.0142011 0.021734 -8.59389 -19.4676 -12.7335 
1288 81 3 1.008 0.03 8.03416 1.06657 0.567535 8.03416 50.2489 0.567535 0 1 0 0.005104 0.00410824 0.0378523 27.4137 -20.5151 -7.96043 
7694 481 3 1.008 0.03 7.9462 5.55323 6.75909 7.9462 103.918 55.9414 0 2 1 -0.00417257 -0.00386132 0.0105806 2.92848 -4.64326 1.38054 
7682 481 1 16 -0.4 6.26573 6.71873 7.11154 6.26573 105.083 56.2939 0 2 1 0.00153353 0.00190071 -0.00462724 -6.54156 1.48109 -2.03666 
8778 549 3 1.008 0.03 0.847096 4.2881 6.3185 -48.3353 -44.8942 6.3185 -1 -1 0 -0.0193965 -0.0126667 -0.00844487 -0.143357 -21.2247 -18.8584 
1296 81 3 1.008 0.03 4.39304 2.64671 0.525514 4.39304 51.8291 0.525514 0 1 0 0.0202889 -0.0211485 -0.00677138 2.99198 8.61499 -13.8578 
7684 481 2 12.01 0.14 5.1115 5.85243 7.06943 5.1115 104.217 56.2518 0 2 1 -0.00488533 -0.00177894 -0.00353944 25.7053 26.907 37.2264 
7689 481 3 1.008 0.03 4.24475 6.4874 7.22086 4.24475 104.852 56.4032 0 2 1 0.000261179 -0.0198576 0.00349696 -3.48961 1.81197 -0.709032 
1584 99 3 1.008 0.03 9.17071 3.15737 3.32819 58.3531 -46.025 52.5105 1 -1 1 -0.0241628 0.0145606 0.0101849 -30.5335 -24.4577 -1.81723 
1185 75 1 16 -0.4 13.6069 6.00414 0.818986 -35.5754 6.00414 0.818986 -1 0 0 -0.00733373 0.00024136 -0.00220934 -7.62188 20.5209 -16.2053 
8822 552 2 12.01 0.11 12.7756 0.861179 4.75468 12.7756 99.2259 53.937 0 2 1 0.00452249 0.000314326 0.00824205 9.10475 12.7546 -39.5318 
5794 363 1 16 -0.4 9.20939 7.90961 4.54087 58.3917 57.092 102.906 1 1 2 -0.00134011 0.00347714 -0.00582884 29.1267 3.477 5.38776 
7162 448 3 1.008 0.03 12.4146 5.25475 4.95101 12.4146 -43.9276 54.1334 0 -1 1 0.0227321 -0.0148805 -0.0136986 3.32857 -7.63817 -0.977521 
2534 159 2 12.01 0.11 15.643 1.87061 2.21379 15.643 51.053 51.3961 0 1 1 -0.00565365 0.00275681 -0.0014459 18.959 -14.1126 15.8064 
2538 159 3 1.008 0.03 15.7416 4.46294 2.44235 15.7416 53.6453 51.6247 0 1 1 -0.00114615 0.0346371 -0.0196373 16.6154 -15.6793 -19.0811 
1570 99 1 16 -0.4 11.1343 3.10434 2.83106 60.3167 -46.078 52.0134 1 -1 1 -0.00264706 0.000610172 -0.00755467 40.5993 -24.2273 2.89603 
1572 99 2 12.01 0.14 10.9075 2.87382 1.46531 60.0899 -46.3085 50.6477 1 -1 1 0.00155692 -0.0098097 -0.00140453 -9.79692 14.5936 5.56035 
2530 159 1 16 -0.4 16.2855 2.7601 1.26457 16.2855 51.9425 50.4469 0 1 1 -0.00272497 0.00384737 -0.00354091 -16.6073 -31.7284 3.52019 
1574 99 2 12.01 0.11 10.0904 3.53832 3.6181 59.2727 -45.644 52.8004 1 -1 1 -0.00644528 -0.00407242 -0.0114433 8.03614 44.2121 -14.9537 
2532 159 2 12.01 0.14 16.6072 3.91271 1.95752 16.6072 53.0951 51.1399 0 1 1 0.00419332 -0.00583394 -0.0017716 -13.5793 68.1073 3.62266 
1583 99 3 1.008 0.03 9.97907 4.61259 3.39268 59.1614 -44.5698 52.575 1 -1 1 0.00599855 -0.0186878 0.0143994 3.37485 -5.80932 11.8708 
2542 159 3 1.008 0.03 16.4219 1.37437 2.86532 16.4219 50.5567 52.0477 0 1 1 0.0140256 -0.0119727 -0.00218885 -17.9083 9.94277 -16.3964 
1578 99 3 1.008 0.03 10.1404 2.15313 1.3335 59.3228 -47.0292 50.5159 1 -1 1 0.0246656 0.0119856 -0.0142009 -13.4645 -13.7106 -4.76392 
2543 159 3 1.008 0.03 14.9426 2.3385 2.90396 14.9426 51.5209 52.0863 0 1 1 0.0015654 -0.00129039 0.00430869 0.243801 8.24173 -1.47981 
1577 99 3 1.008 0.03 10.5373 3.83582 1.14691 59.7197 -45.3465 50.3293 1 -1 1 -0.0200348 0.0157512 0.00204187 -4.2128 3.64678 -13.8586 
1575 99 3 1.008 0.03 12.8355 3.28484 1.04647 62.0178 -45.8975 50.2288 1 -1 1 0.00982303 -4.82748e-05 0.0138996 18.2504 14.8785 -1.28503 
7154 448 1 16 -0.4 13.4662 6.54776 5.98086 13.4662 -42.6346 55.1632 0 -1 1 0.00112916 -0.000663097 0.00018124 19.231 9.6219 0.93944 
7156 448 2 12.01 0.14 13.1972 5.19534 5.7123 13.1972 -43.987 54.8946 0 -1 1 -0.00705754 -0.0026696 0.000670288 -1.37038 -27.4622 -24.9201 
7161 448 3 1.008 0.03 13.9734 4.44766 5.35933 13.9734 -44.7347 54.5417 0 -1 1 -0.00296373 0.011093 -0.0174911 -6.65679 35.2969 3.09441 
1571 99 2 12.01 0.14 12.1864 2.52194 0.717228 61.3687 -46.6604 49.8996 1 -1 1 0.00173714 5.42775e-05 -0.00795653 -6.60836 -24.8379 1.80262 
1200 75 3 1.008 0.03 15.9999 7.38289 2.7333 -33.1824 7.38289 2.7333 -1 0 0 0.0183806 0.0134043 0.0033988 -4.01502 -4.62554 -4.16451 
2544 159 3 1.008 0.03 15.0289 1.09412 1.76491 15.0289 50.2765 50.9473 0 1 1 -0.00508001 -0.0215341 0.000506044 9.82591 -3.03524 -7.14401 
7158 448 2 12.01 0.11 14.8518 6.84623 6.12759 14.8518 -42.3361 55.3099 0 -1 1 0.00608978 0.00313173 0.00709312 26.4704 14.1174 -17.9788 
7168 448 3 1.008 0.03 15.015 7.90976 6.44339 15.015 -41.2726 55.6257 0 -1 1 -0.00673308 0.0117028 -0.000246617 -7.60892 -20.2679 -2.53737 
1569 99 1 16 -0.4 12.7799 1.26889 1.09254 61.9623 -47.9135 50.2749 1 -1 1 -0.0017769 -3.72083e-05 -0.00337789 -13.3797 5.92806 -0.785964 
1189 75 2 12.01 0.11 12.9808 6.1682 2.07722 -36.2016 6.1682 2.07722 -1 0 0 -0.00151919 0.00479623 -0.00170809 11.6531 20.8887 62.9955 
1195 75 3 1.008 0.03 11.9027 6.14684 2.13358 -37.2796 6.14684 2.13358 -1 0 0 -0.0150479 -0.00183824 -0.0219754 -8.40696 -6.75351 -17.0575 
8832 552 3 1.008 0.03 13.1303 0.611231 3.77576 13.1303 98.9759 52.9581 0 2 1 -0.0119005 -0.0141733 0.0193862 7.80647 -5.10799 -11.02 
1197 75 3 1.008 0.03 13.1537 7.21634 2.5514 -36.0287 7.21634 2.5514 -1 0 0 -0.00849066 0.00955339 0.0113514 3.86884 -50.0039 -15.5441 
5943 372 3 1.008 0.03 15.722 1.89745 6.28191 15.722 100.262 55.4643 0 2 1 0.00697207 -0.00427592 0.00511459 5.00148 -0.147121 -6.51748 
7155 448 2 12.01 0.14 12.5944 4.58763 6.93127 12.5944 -44.5947 56.1136 0 -1 1 -0.00322708 -0.000847422 0.0011232 7.14236 3.37239 9.12253 
7167 448 3 1.008 0.03 15.3956 6.78094 5.13442 15.3956 -42.4014 54.3168 0 -1 1 -0.0236409 -0.0214734 0.0107754 -15.9082 -3.70374 25.5134 
5939 372 2 12.01 0.14 16.6884 1.79847 6.78296 16.6884 100.163 55.9653 0 2 1 0.00987005 -0.00438021 -0.00507177 -13.7616 -4.93591 30.8012 
2536 159 3 1.008 0.03 16.7767 5.62583 0.706611 16.7767 54.8082 49.889 0 1 1 0.00829734 -0.0115492 -0.0042638 9.9263 -11.0656 -15.1552 
1582 99 3 1.008 0.03 10.3409 3.36324 4.64618 59.5232 -45.8191 53.8285 1 -1 1 0.00659089 -0.0124779 -0.000178482 -4.19994 0.781618 13.7355 
1196 75 3 1.008 0.03 13.2971 5.32224 2.77863 -35.8852 5.32224 2.77863 -1 0 0 -0.00413393 -0.00939374 -0.00128288 -4.89239 30.3842 -21.6254 
8830 552 3 1.008 0.03 11.8542 1.33544 4.54923 11.8542 99.7001 53.7316 0 2 1 0.00277998 -0.0203243 -0.0297021 -25.5438 5.9294 7.12855 
8831 552 3 1.008 0.03 13.3932 1.60169 5.09648 13.3932 99.9664 54.2788 0 2 1 -0.0108812 0.0186988 -0.00861825 30.5739 27.8743 17.6844 
1188 75 2 12.01 0.14 14.384 8.30664 0.484038 -34.7984 8.30664 0.484038 -1 0 0 0.00223365 -0.00504281 -0.000167393 -4.55673 -4.90773 -14.5377 
1190 75 2 12.01 0.11 16.3207 8.0244 1.91383 -32.8616 8.0244 1.91383 -1 0 0 -0.000152195 0.00761634 -0.00532676 17.073 -7.59909 -1.06907 
1186 75 1 16 -0.4 15.6539 7.76032 0.668447 -33.5284 7.76032 0.668447 -1 0 0 -0.000905268 0.000109632 -0.00592958 23.2388 -3.53384 6.48254 
7153 448 1 16 -0.4 12.4545 3.19245 6.74803 12.4545 -45.9899 55.9304 0 -1 1 0.000140428 0.0011663 -0.002474 -4.92791 8.95375 20.0052 
7166 448 3 1.008 0.03 15.3681 6.19258 6.85683 15.3681 -42.9898 56.0392 0 -1 1 -0.0226891 -0.00278689 0.0159946 -7.27283 5.52467 -6.60581 
7159 448 3 1.008 0.03 11.6126 5.02424 7.04831 11.6126 -44.1581 56.2307 0 -1 1 0.0195135 -0.000634611 -0.0121153 -4.91305 4.06555 9.30051 
9674 606 8 19 -0.16 22.9754 6.55087 0.51188 22.9754 55.7332 49.6942 0 1 1 -0.00318876 0.00736191 -0.00641196 8.44456 -17.6392 -2.13741 
2537 159 3 1.008 0.03 17.2022 3.691 2.77 17.2022 52.8734 51.9524 0 1 1 -0.0021488 0.0196042 0.00939821 23.6029 -16.6043 31.6572 
7965 498 3 1.008 0.03 19.4479 1.60499 2.61917 19.4479 50.7873 51.8015 0 1 1 0.00759183 0.000261382 0.00996905 7.87628 -7.05779 -11.6527 
10252 645 4 14.01 -0.66 23.3822 1.26158 7.09254 23.3822 50.4439 7.09254 0 1 0 -0.000836803 -0.0034628 0.00334498 22.6139 -8.14703 46.8126 
2531 159 2 12.01 0.14 17.4779 4.88523 1.11457 17.4779 54.0676 50.2969 0 1 1 -0.00356017 0.00165664 -0.00246264 -49.2721 -9.22764 18.8372 
5938 372 1 16 -0.4 17.7539 3.58856 5.37774 17.7539 101.953 54.5601 0 2 1 -0.00199035 0.00288983 0.00368248 -9.57028 -16.3527 1.34252 
5942 372 2 12.01 0.11 18.2424 4.60613 6.2344 18.2424 102.971 55.4167 0 2 1 -0.00718459 -0.00516143 0.0103463 19.97 -18.8287 -8.17984 
2535 159 3 1.008 0.03 18.0496 5.46655 1.81277 18.0496 54.6489 50.9951 0 1 1 0.012155 -0.000218169 -0.0197173 17.129 2.62647 3.86378 
10260 645 5 32.06 1.02 23.2435 1.68817 5.65403 23.2435 50.8705 5.65403 0 1 0 -0.000803331 -0.00222556 0.00131522 -64.9612 -51.3723 -33.522 
10261 645 6 16 -0.53 24.0182 2.8376 5.41084 24.0182 52.02 5.41084 0 1 0 -0.00302364 -0.00603775 -0.00173649 27.4464 50.4508 -10.4939 
9669 606 6 16 -0.53 22.1844 4.40642 2.40439 22.1844 53.5888 51.5867 0 1 1 0.00398328 -0.00769122 0.0043125 -26.6683 -7.68373 3.55299 
9671 606 7 12.01 0.35 23.5372 6.48235 1.70754 23.5372 55.6647 50.8899 0 1 1 0.00846503 -0.000255083 -0.00151785 -18.4195 39.3855 -24.3 
9670 606 6 16 -0.53 24.1634 5.01448 3.73755 24.1634 54.1968 52.9199 0 1 1 -0.000482043 0.00350518 0.00531667 -4.09477 18.6163 12.1624 
9668 606 5 32.06 1.02 23.5322 4.84479 2.44519 23.5322 54.0271 51.6275 0 1 1 0.00074246 0.00352291 0.000281482 27.4524 -19.8344 1.19376 
9667 606 4 14.01 -0.66 24.5362 4.02325 1.59755 24.5362 53.2056 50.7799 0 1 1 -0.00584422 -0.000743054 -0.00745473 2.53231 15.3271 -6.85075 
400 25 3 1.008 0.03 22.1924 5.94783 6.67067 22.1924 55.1302 55.853 0 1 1 0.00516569 0.0107026 -0.0123066 -9.74702 5.15326 -26.7759 
10262 645 6 16 -0.53 21.888 1.60744 5.11182 21.888 50.7898 5.11182 0 1 0 0.00278063 0.00647209 0.00308302 30.4865 14.0327 0.618606 
7964 498 3 1.008 0.03 20.2686 2.68587 1.59165 20.2686 51.8682 50.774 0 1 1 0.022286 0.00306374 -0.00356746 -9.67313 3.55705 -10.6011 
9647 604 6 16 -0.53 20.0398 7.35601 6.05339 20.0398 56.5384 6.05339 0 1 0 -0.00567327 -0.00159631 0.00854096 -0.0922797 51.8485 -15.1111 
5952 372 3 1.008 0.03 19.3597 4.55231 6.23812 19.3597 102.917 55.4205 0 2 1 -0.032399 0.026348 -0.00859936 -18.9626 0.545059 7.44317 
9673 606 8 19 -0.16 22.7714 7.35706 2.37894 22.7714 56.5394 51.5613 0 1 1 -0.00180779 0.00133518 -0.000293332 28.0297 -10.5798 3.98017 
7957 498 2 12.01 0.11 19.8744 1.67048 1.59491 19.8744 50.8528 50.7773 0 1 1 0.007501 0.00417096 0.00203057 21.1596 8.18622 35.2007 
7953 498 1 16 -0.4 18.8521 1.39478 0.656867 18.8521 50.5771 49.8392 0 1 1 -0.0052075 -0.000704086 0.00121773 -18.9236 6.72012 -29.803 
5951 372 3 1.008 0.03 17.8057 4.5061 7.23366 17.8057 102.871 56.416 0 2 1 -0.0147027 0.0254488 0.00175672 4.83076 6.02415 -3.2961 
5940 372 2 12.01 0.14 17.8744 2.24716 5.90167 17.8744 100.612 55.084 0 2 1 -0.0114742 0.008458 -0.000231543 -13.1242 15.8185 -11.0363 
5950 372 3 1.008 0.03 17.984 5.53632 5.76033 17.984 103.901 54.9427 0 2 1 0.0232282 -0.0118241 -0.0169828 -4.96516 11.4422 3.07045 
386 25 1 16 -0.4 24.166 5.40441 7.02186 24.166 54.5868 56.2042 0 1 1 0.00173974 0.00288545 0.00788667 6.2457 -2.70894 -0.87917 
5946 372 3 1.008 0.03 17.893 1.55925 5.06191 17.893 99.9239 54.2443 0 2 1 0.0021284 -0.020277 -0.0160219 3.23329 0.084782 -4.15175 
7963 498 3 1.008 0.03 20.8123 1.08481 1.52014 20.8123 50.2672 50.7025 0 1 1 -0.00230496 0.00591127 0.0037952 -16.0225 -3.97988 -2.34311 
9650 604 8 19 -0.16 20.0346 7.60596 3.03905 20.0346 56.7883 3.03905 0 1 0 0.0013145 -0.00286797 -0.000593559 -8.30239 -2.63102 -4.86462 
1198 75 3 1.008 0.03 17.4052 7.8504 1.7617 -31.7772 7.8504 1.7617 -1 0 0 -0.00112997 0.022954 0.0105828 -13.0679 -1.56401 1.94263 
9681 606 8 19 -0.16 23.2209 1.41739 0.583237 23.2209 50.5997 49.7656 0 1 1 -0.00647029 -0.000746758 0.00256427 -33.7424 0.463964 20.9159 
9649 604 8 19 -0.16 21.7148 8.41273 3.93803 21.7148 57.5951 3.93803 0 1 0 0.00230371 0.00402038 -0.00282003 42.3271 -1.06659 -6.17362 
5945 372 3 1.008 0.03 18.8196 2.15767 6.39307 18.8196 100.522 55.5754 0 2 1 -0.012548 -0.0179435 -0.011459 11.9933 -5.75874 9.25622 
9672 606 8 19 -0.16 24.768 6.96375 1.53184 24.768 56.1461 50.7142 0 1 1 0.0065424 -0.0018404 0.00458034 -8.30556 2.96367 12.6206 
10265 645 8 19 -0.16 24.238 0.475283 3.44953 24.238 49.6576 3.44953 0 1 0 -0.00175137 0.00317147 0.0024318 -4.23537 3.42694 18.4793 
9277 580 3 1.008 0.03 20.1034 7.5517 0.669943 118.468 56.734 -48.5124 2 1 -1 0.0220573 0.00964111 -0.00546631 -4.34175 4.8652 17.9297 
951 60 3 1.008 0.03 4.14347 9.19412 3.3438 4.14347 -89.1706 52.5262 0 -2 1 -0.0168294 -0.00243756 0.0249244 -3.63407 15.9313 -10.5507 
5712 357 3 1.008 0.03 1.63524 14.0343 2.74618 -47.5471 14.0343 2.74618 -1 0 0 -0.0368524 0.0182527 0.00366785 1.82067 -2.6637 -14.8407 
956 60 3 1.008 0.03 4.85809 11.4539 5.0779 4.85809 -86.9108 54.2603 0 -2 1 -0.00336373 -0.0014384 0.0212273 13.1288 1.79581 -1.24992 
955 60 3 1.008 0.03 3.97567 10.048 5.75666 3.97567 -88.3167 54.939 0 -2 1 0.00623616 -0.00136382 -0.0173208 -7.67389 16.8273 -21.751 
957 60 3 1.008 0.03 3.35423 11.7207 5.76666 3.35423 -86.644 54.949 0 -2 1 0.000885658 -0.00478204 -0.0187902 -5.06233 1.17123 9.71357 
2462 154 3 1.008 0.03 5.16629 13.6635 6.12008 5.16629 13.6635 104.485 0 0 2 0.00916592 -0.00725466 0.0196601 -23.9195 -1.10423 12.3593 
2450 154 1 16 -0.4 3.40231 13.9624 7.40474 3.40231 13.9624 105.769 0 0 2 -0.000746888 -0.00377577 0.0058145 10.1893 0.825741 -4.28408 
2463 154 3 1.008 0.03 4.38322 15.1776 6.09248 4.38322 15.1776 104.457 0 0 2 0.022444 0.00347034 0.0130602 -0.697164 8.6643 -0.684683 
2464 154 3 1.008 0.03 5.49279 14.6732 7.39439 5.49279 14.6732 105.759 0 0 2 -0.0252876 -0.0179584 0.0397762 -18.8252 5.81671 10.216 
5705 357 3 1.008 0.03 1.07071 14.8327 5.96182 -48.1116 14.8327 5.96182 -1 0 0 0.0068067 0.00765967 0.0205041 -21.5321 11.5511 6.70642 
952 60 3 1.008 0.03 3.23479 10.1247 2.06499 3.23479 -88.24 51.2473 0 -2 1 0.00715069 -0.00185239 0.0162624 -16.7643 -12.4156 3.68654 
947 60 2 12.01 0.14 3.85777 10.1978 2.94447 3.85777 -88.1669 52.1268 0 -2 1 0.00424276 -0.00347448 0.000505653 24.3298 9.47614 11.8868 
945 60 1 16 -0.4 3.20684 11.0173 3.92702 3.20684 -87.3474 53.1094 0 -2 1 -0.000169785 0.000338063 -0.00451387 2.63236 -20.2094 -8.3384 
949 60 2 12.01 0.11 3.89178 11.0058 5.16712 3.89178 -87.3589 54.3495 0 -2 1 0.00516616 0.00571429 0.00663625 -7.20481 -6.10338 15.3275 
5700 357 2 12.01 0.14 0.933152 14.4809 4.96223 -48.2492 14.4809 4.96223 -1 0 0 0.00170278 0.0003262 0.0015222 63.8195 24.6896 -11.6931 
2454 154 2 12.01 0.11 4.62508 14.3829 6.78071 4.62508 14.3829 105.145 0 0 2 4.30706e-05 -0.00603181 0.00417606 29.9642 -12.2926 -17.4454 
5706 357 3 1.008 0.03 1.31659 13.4884 5.15699 -47.8658 13.4884 5.15699 -1 0 0 -0.00690788 0.00565102 -0.0205455 -15.8709 -16.4824 -15.6336 
5698 357 1 16 -0.4 1.98879 15.2412 4.30998 -47.1936 15.2412 4.30998 -1 0 0 0.00314702 0.00125036 0.00561764 -21.8583 4.59755 29.7265 
5702 357 2 12.01 0.11 2.41279 14.6881 3.12299 -46.7696 14.6881 3.12299 -1 0 0 -0.00208575 0.00491349 0.00399978 7.96471 -41.703 8.32329 
954 60 3 1.008 0.03 4.61459 11.9064 1.986 4.61459 -86.4583 51.1683 0 -2 1 -0.0053578 -0.00219281 -0.00234777 11.7634 6.66876 2.58349 
946 60 1 16 -0.4 6.1748 11.0271 3.11549 6.1748 -87.3376 52.2978 0 -2 1 0.00217331 -0.00511848 0.00897992 -2.37272 -26.0072 30.49 
948 60 2 12.01 0.14 5.04497 10.9561 2.30526 5.04497 -87.4086 51.4876 0 -2 1 -0.0053142 -0.00372133 0.000284083 -42.0444 12.3755 16.209 
960 60 3 1.008 0.03 6.86544 12.7221 2.45849 6.86544 -85.6426 51.6408 0 -2 1 -0.0102491 0.0107009 -0.0195162 5.80807 14.0755 -3.85474 
5711 357 3 1.008 0.03 3.34468 14.1251 3.21182 -45.8377 14.1251 3.21182 -1 0 0 -0.02369 -0.0148413 -0.0156428 -5.24099 -4.97996 8.39421 
8684 543 3 1.008 0.03 5.83669 10.0733 6.9332 -43.3457 59.2556 105.298 -1 1 2 -0.00197961 -0.0243326 0.00961344 7.23068 7.82259 -16.8821 
958 60 3 1.008 0.03 8.00001 11.8083 3.45365 8.00001 -86.5564 52.636 0 -2 1 -0.0229299 0.0053745 0.00025131 -0.872984 -2.77598 2.01764 
953 60 3 1.008 0.03 5.22345 10.4256 1.44436 5.22345 -87.9391 50.6267 0 -2 1 -0.0103941 -4.35149e-05 -0.029736 20.2702 -19.1095 -36.2471 
950 60 2 12.01 0.11 7.2614 11.7448 2.66317 7.2614 -86.6199 51.8455 0 -2 1 0.00455103 -0.00425437 0.000968332 20.9848 -4.30183 -36.7698 
5710 357 3 1.008 0.03 2.68278 15.4159 2.45213 -46.4996 15.4159 2.45213 -1 0 0 0.0102684 -0.0121045 0.0176751 1.28785 33.1644 -28.9698 
8685 543 3 1.008 0.03 7.08389 11.2822 6.35797 -42.0985 60.4646 104.723 -1 1 2 -0.0125287 0.00279771 -0.0210145 1.13617 11.1297 -9.44101 
5801 363 3 1.008 0.03 7.83543 9.03295 3.50477 57.0178 58.2153 101.869 1 1 2 -0.0266943 0.00706587 -0.0118868 -5.33448 -15.0868 15.8225 
959 60 3 1.008 0.03 7.77752 11.3228 1.73991 7.77752 -87.0419 50.9223 0 -2 1 -0.0151369 0.00966723 -0.0200781 -19.2514 9.41107 25.7578 
1064 67 3 1.008 0.03 5.10171 14.1562 0.4943 5.10171 14.1562 49.6766 0 0 1 -0.0157134 -0.017453 0.00791025 8.14665 5.14307 7.50103 
8111 507 3 1.008 0.03 0.692518 10.4121 1.98654 49.8749 10.4121 100.351 1 0 2 -0.0181789 0.00279067 -0.0110431 -20.5423 -1.89918 7.44707 
8677 543 2 12.01 0.11 6.79621 10.5776 7.10896 -42.3861 59.76 105.474 -1 1 2 -0.00274265 0.00518991 -0.00722401 -23.5863 -34.8952 33.3003 
8683 543 3 1.008 0.03 7.4949 9.75293 7.20304 -41.6874 58.9353 105.568 -1 1 2 0.004766 0.00099335 0.00682843 8.12544 5.09412 -13.1386 
5054 316 3 1.008 0.03 13.8089 12.9163 0.862584 112.174 -36.266 -97.5021 2 -1 -2 0.016199 -0.0125846 0.0058401 2.65182 6.61383 9.41241 
5806 363 3 1.008 0.03 9.6269 9.91266 5.19358 58.8093 59.095 103.558 1 1 2 0.00694725 0.0112643 -0.00429814 -1.58853 -1.84265 -7.99862 
5808 363 3 1.008 0.03 10.8642 8.71229 5.54127 60.0466 57.8946 103.906 1 1 2 -0.028311 -0.00456469 0.0102192 -13.8792 -2.68807 10.7448 
5798 363 2 12.01 0.11 9.76878 8.8665 5.46517 58.9511 58.0489 103.83 1 1 2 -0.0010148 -0.00114994 -0.00604975 -20.1391 -8.14377 -12.3919 
445 28 3 1.008 0.03 9.05806 14.853 0.660684 107.423 64.0353 148.208 2 1 3 0.0226705 -0.00654022 -0.0022146 -3.75044 -1.06192 4.26247 
8544 534 3 1.008 0.03 10.0805 10.7711 0.804834 59.2628 10.7711 -48.3775 1 0 -1 0.013973 0.0115616 0.0223872 -8.8364 -18.3884 10.9528 
5807 363 3 1.008 0.03 9.15542 8.73116 6.36967 58.3378 57.9135 104.734 1 1 2 0.00954582 -0.00129251 -0.0170198 22.2815 -1.23525 2.62266 
1199 75 3 1.008 0.03 16.2886 9.01724 2.32066 -32.8938 9.01724 2.32066 -1 0 0 0.00717701 -0.00304785 -0.0236612 -8.49542 15.2924 -6.59502 
9871 619 6 16 -0.53 12.2039 13.2782 3.60174 12.2039 62.4606 3.60174 0 1 0 -0.00441683 -0.00424149 0.0012425 31.6082 -52.2881 21.4591 
3792 237 3 1.008 0.03 16.3157 14.6787 3.24702 16.3157 63.8611 3.24702 0 1 0 0.00737786 0.00846588 0.0117142 2.96039 6.864 0.292819 
9872 619 6 16 -0.53 11.2819 14.5567 1.80005 11.2819 63.7391 1.80005 0 1 0 -0.00432776 -0.00237726 0.00970071 -5.56417 0.668355 -2.89177 
9874 619 8 19 -0.16 9.29103 15.4434 3.87905 9.29103 64.6257 3.87905 0 1 0 0.00521096 -0.00110737 0.00343455 -16.1227 23.5803 -6.86034 
9873 619 7 12.01 0.35 10.0177 14.4064 4.1176 10.0177 63.5888 4.1176 0 1 0 -0.00227136 -0.00221425 -0.00158802 10.2549 1.35336 -36.111 
9870 619 5 32.06 1.02 11.5907 14.4625 3.19825 11.5907 63.6449 3.19825 0 1 0 -0.000655241 -0.00460327 -0.00115519 0.535897 60.4373 -8.02672 
9876 619 8 19 -0.16 10.1917 14.3889 5.3959 10.1917 63.5712 5.3959 0 1 0 2.85763e-05 0.00601289 -0.00142481 1.78137 -9.38891 30.8381 
9862 619 4 14.01 -0.66 12.2833 15.744 3.8365 12.2833 64.9264 3.8365 0 1 0 0.00132305 -0.000650241 -0.000381001 -8.04044 -26.766 0.308134 
9875 619 8 19 -0.16 9.28578 13.3859 3.75068 9.28578 62.5682 3.75068 0 1 0 -0.00240083 -0.000675683 0.00432019 -2.8548 -10.6921 7.29731 
5056 316 3 1.008 0.03 14.6537 12.0903 2.23117 113.018 -37.092 -96.1335 2 -1 -2 -0.00501433 -0.00908798 -0.00390267 -1.22078 6.60339 18.568 
3782 237 2 12.01 0.11 16.5407 15.6512 3.71117 16.5407 64.8335 3.71117 0 1 0 -0.00263452 -0.000998425 0.000120074 -9.86443 12.7952 -8.22161 
1194 75 3 1.008 0.03 14.0089 8.80378 1.34451 -35.1735 8.80378 1.34451 -1 0 0 -0.00202582 -0.0208022 0.00501649 -6.41541 5.54084 17.6473 
3785 237 3 1.008 0.03 15.7264 15.642 1.35222 15.7264 64.8244 1.35222 0 1 0 -0.0463629 0.0100664 -0.0164793 -0.574433 18.9669 3.48777 
3502 219 3 1.008 0.03 12.5639 14.0956 6.68897 12.5639 63.278 6.68897 0 1 0 0.0132087 0.0119813 0.0305109 17.0609 2.37743 25.8386 
3007 188 3 1.008 0.03 15.5396 12.5777 4.95596 64.722 12.5777 54.1383 1 0 1 0.0132857 0.0262047 -0.0161191 -6.81314 17.7007 -24.7939 
5046 316 2 12.01 0.11 14.7189 12.4259 1.21938 113.084 -36.7564 -97.1453 2 -1 -2 -0.00522755 -0.00495406 -0.00129157 4.55205 -6.59961 -29.1569 
3006 188 3 1.008 0.03 15.3082 12.1308 6.52058 64.4905 12.1308 55.7029 1 0 1 -0.00145449 -0.0337521 -0.0148102 -19.1676 1.63047 30.041 
3791 237 3 1.008 0.03 16.2516 15.5693 4.74421 16.2516 64.7517 4.74421 0 1 0 -0.00394657 0.00526492 0.00977393 1.28449 -2.36094 9.77274 
5042 316 1 16 -0.4 15.9056 13.1554 0.864845 114.27 -36.027 -97.4999 2 -1 -2 0.00332482 0.00365398 -0.00472825 -30.4844 4.7756 25.6991 
2998 188 2 12.01 0.11 16.0037 12.0822 5.75233 65.1861 12.0822 54.9347 1 0 1 0.00157338 -0.00665023 0.00182219 34.4207 10.5099 9.75318 
8542 534 3 1.008 0.03 11.701 11.4127 0.867764 60.8833 11.4127 -48.3146 1 0 -1 0.00827797 -0.00116286 -0.00237779 4.29689 5.48696 10.7445 
3008 188 3 1.008 0.03 16.066 11.0645 5.49836 65.2484 11.0645 54.6807 1 0 1 0.0227222 -0.00867114 0.00956503 6.9692 -25.8583 -7.38828 
5055 316 3 1.008 0.03 14.6691 11.4987 0.661684 113.034 -37.6836 -97.703 2 -1 -2 0.0156668 -0.017775 0.0117053 7.03683 -3.67561 -3.62669 
3780 237 2 12.01 0.14 16.0674 16.6506 1.69174 16.0674 65.8329 1.69174 0 1 0 0.0108444 0.00665002 0.00076426 -16.9349 -30.2277 -2.99299 
3778 237 1 16 -0.4 15.8722 16.7694 3.11326 15.8722 65.9517 3.11326 0 1 0 0.00113572 0.00608991 0.00109928 15.2568 -24.6377 -15.5995 
3660 229 3 1.008 0.03 15.4521 16.7388 7.13267 15.4521 65.9211 7.13267 0 1 0 0.00826265 -0.0184837 0.00486992 -2.4154 -22.2219 5.23992 
3498 219 3 1.008 0.03 11.0241 15.5254 7.42639 11.0241 64.7078 7.42639 0 1 0 -0.00678896 0.000981658 -0.0108357 -16.9151 4.05047 -12.7365 
3503 219 3 1.008 0.03 14.1415 13.9697 7.27106 14.1415 63.152 7.27106 0 1 0 -0.0164771 -0.00576628 -0.00961978 10.5249 9.08782 11.0756 
5051 316 3 1.008 0.03 19.7134 15.6078 0.542744 118.078 -33.5746 -97.822 2 -1 -2 -0.00187491 -0.0137909 0.0316298 1.96843 -21.7542 16.9985 
3971 249 2 12.01 0.14 24.7431 9.94907 1.84143 73.9255 -39.2333 198.571 1 -1 4 0.00305591 0.00338994 -0.00307337 30.2356 -53.9334 -49.8765 
3976 249 3 1.008 0.03 23.8143 9.408 1.78075 72.9966 -39.7744 198.51 1 -1 4 0.00359291 0.00476914 0.0122097 -11.5957 -0.960969 16.876 
9644 604 8 19 -0.16 23.349 9.4309 5.65339 23.349 58.6132 5.65339 0 1 0 0.000914635 0.00123762 -0.000822159 -12.8548 -47.2101 -33.309 
9646 604 6 16 -0.53 18.3058 8.88846 5.1685 18.3058 58.0708 5.1685 0 1 0 -0.00400292 -0.000466962 -0.00399781 21.2081 1.49861 6.34799 
9645 604 5 32.06 1.02 19.7158 8.69651 5.50345 19.7158 57.8789 5.50345 0 1 0 -0.00237437 0.00025266 -0.00155903 -56.3901 -74.8472 -36.4394 
9648 604 7 12.01 0.35 20.4661 8.61736 3.7641 20.4661 57.7997 3.7641 0 1 0 0.00689918 -0.00649153 -0.000178059 -26.062 35.1161 35.7888 
5045 316 2 12.01 0.11 19.8404 15.0013 1.48769 118.205 -34.181 -96.877 2 -1 -2 -0.00111033 0.00163187 -0.00191494 27.7311 5.30277 -22.951 
5048 316 3 1.008 0.03 18.9516 12.8618 0.499531 117.316 -36.3205 -97.8652 2 -1 -2 0.0150873 -0.00810189 0.0140336 0.860884 6.78631 -0.427637 
9641 604 7 12.01 0.35 22.9305 10.272 6.50708 22.9305 59.4543 6.50708 0 1 0 -0.00337642 6.52667e-05 -0.00298929 -51.91 6.18816 23.9358 
3000 188 3 1.008 0.03 19.5839 12.5181 6.64745 68.7662 12.5181 55.8298 1 0 1 -0.00480138 0.00388607 -0.0145007 5.34372 27.1402 -24.8113 
2999 188 3 1.008 0.03 20.3342 13.2143 5.12253 69.5166 13.2143 54.3049 1 0 1 -0.00886388 0.00579262 -0.000704818 -8.05696 -0.0794806 4.46706 
9643 604 8 19 -0.16 22.8851 11.4039 5.83398 22.8851 60.5862 5.83398 0 1 0 -0.00440558 0.00199923 0.0022068 14.448 14.7871 14.991 
5052 316 3 1.008 0.03 20.1244 15.7441 2.20454 118.489 -33.4382 -96.1602 2 -1 -2 0.00610778 -0.00494288 -0.0153902 3.80773 4.89051 13.297 
3981 249 3 1.008 0.03 24.1668 12.2341 4.06469 73.3492 -36.9482 200.794 1 -1 4 -0.0122689 0.0164534 0.0027109 8.6092 -27.3834 -19.114 
3973 249 2 12.01 0.11 24.264 11.1919 3.61544 73.4463 -37.9904 200.345 1 -1 4 0.00690176 0.000457459 4.62284e-05 -37.6722 46.2245 32.0719 