ITEM: TIMESTEP
850000
ITEM: NUMBER OF ATOMS
10479
ITEM: BOX BOUNDS pp pp pp
4.0882558190751794e-01 4.9591174418091420e+01
4.0882558190751794e-01 4.9591174418091420e+01
4.0882558190751794e-01 4.9591174418091420e+01
ITEM: ATOMS id mol type mass q x y z xu yu zu ix iy iz vx vy vz fx fy fz 
3031 190 3 1.008 0.03 3.64992 7.74308 1.8805 52.8323 56.9254 -47.3018 1 1 -1 -0.0146058 -0.0125259 0.0029849 -10.7327 6.89362 -12.368 
5406 338 3 1.008 0.03 2.2803 0.496559 7.09575 51.4626 98.8613 7.09575 1 2 0 -0.0110167 -0.0162403 0.00442125 -3.00999 -20.6696 11.7439 
8573 536 3 1.008 0.03 1.39443 2.91776 6.54692 1.39443 2.91776 -42.6354 0 0 -1 0.00857845 0.0238832 0.0103412 -11.2625 -13.7491 -20.7653 
1582 99 3 1.008 0.03 6.93837 1.11145 4.2393 56.1207 -48.0709 53.4216 1 -1 1 0.0370174 -6.42581e-05 -0.0233874 -17.4087 11.8194 -2.16703 
3025 190 1 16 -0.4 3.90928 5.97285 1.06122 53.0916 55.1552 -48.1211 1 1 -1 -0.00945217 0.00291033 -0.00546804 19.9025 -7.4838 -4.73597 
3028 190 2 12.01 0.14 1.71031 6.77693 1.70375 50.8927 55.9593 -47.4786 1 1 -1 -0.000909835 -0.010238 -0.000948307 -12.101 -53.737 0.739831 
3027 190 2 12.01 0.14 3.10199 7.11012 1.16579 52.2843 56.2925 -48.0166 1 1 -1 -0.000379474 -0.00200298 0.00163715 10.3474 8.77798 14.3062 
8562 536 1 16 -0.4 1.09373 7.0785 5.99378 1.09373 7.0785 -43.1886 0 0 -1 -0.00636544 -0.000863204 0.00139097 -0.662776 46.2858 -19.3023 
3033 190 3 1.008 0.03 1.22252 6.10074 0.951715 50.4049 55.2831 -48.2306 1 1 -1 0.0134727 0.0187277 0.0202713 6.41988 14.3196 16.3936 
4405 276 2 12.01 0.11 6.98826 5.30943 6.4243 6.98826 54.4918 153.971 0 1 3 -0.000944064 -0.00480238 0.00695426 -8.51178 -19.9956 1.275 
4411 276 3 1.008 0.03 7.81856 4.90197 5.84843 7.81856 54.0843 153.395 0 1 3 -0.0123157 -0.0136647 -0.000250889 2.08485 8.07562 -3.76968 
8563 536 2 12.01 0.14 2.39777 5.25917 6.88577 2.39777 5.25917 -42.2966 0 0 -1 -0.00276619 0.00166431 -0.00019079 -24.5954 24.4831 2.05781 
8568 536 3 1.008 0.03 2.41932 4.87713 5.90676 2.41932 4.87713 -43.2756 0 0 -1 -0.0118084 0.00265623 0.0123767 19.8689 -9.89024 -25.1127 
3026 190 1 16 -0.4 0.855023 7.85396 1.99049 50.0374 57.0363 -47.1919 1 1 -1 0.00210968 0.000191984 0.00722979 8.21594 33.7687 -0.766262 
4408 276 3 1.008 0.03 5.00946 5.50191 3.73664 5.00946 54.6843 151.284 0 1 3 0.0215245 -0.0135055 -0.0180394 -4.30856 -20.3657 -4.20383 
4401 276 1 16 -0.4 5.77141 5.22883 5.64777 5.77141 54.4112 153.195 0 1 3 -0.0049234 -0.0055136 -0.00202301 5.14445 1.96996 5.21923 
4407 276 3 1.008 0.03 6.76606 5.61735 3.82863 6.76606 54.7997 151.376 0 1 3 -0.0186583 -0.0143456 0.040926 9.24305 -12.62 -7.09308 
4403 276 2 12.01 0.14 5.84343 5.81572 4.33608 5.84343 54.9981 151.883 0 1 3 0.000285676 0.00218397 0.00771777 -4.96858 11.2868 4.31614 
4215 264 3 1.008 0.03 5.25039 2.96664 0.89539 5.25039 -46.2157 -97.4693 0 -1 -2 0.00869808 -0.0277873 0.0153717 -12.0828 15.9841 24.7135 
3034 190 3 1.008 0.03 1.8438 6.18072 2.63141 51.0261 55.3631 -46.5509 1 1 -1 0.00331416 0.0108115 -0.0053884 -2.79601 7.22718 -10.7429 
1574 99 2 12.01 0.11 7.76537 0.578951 3.83517 56.9477 -48.6034 53.0175 1 -1 1 0.00375677 -1.13681e-05 -0.00073767 10.8521 -38.0157 33.4948 
1200 75 3 1.008 0.03 2.81865 3.54664 3.04271 -46.3637 3.54664 3.04271 -1 0 0 -0.0235884 -0.00776067 0.00396982 5.83458 12.2977 7.06464 
4209 264 1 16 -0.4 5.70735 1.02191 0.700769 5.70735 -48.1604 -97.6639 0 -1 -2 -0.000166513 0.00144555 -0.000139853 -12.7764 4.42936 23.6858 
8566 536 2 12.01 0.11 0.744765 8.5247 5.94169 0.744765 8.5247 -43.2407 0 0 -1 0.000715354 0.0085066 0.00623715 6.87746 -39.2218 26.2768 
4404 276 2 12.01 0.14 5.61805 7.31127 4.25058 5.61805 56.4936 151.798 0 1 3 0.00476239 -0.00431217 -0.000690357 21.7495 8.57273 -1.17724 
4402 276 1 16 -0.4 6.86448 7.932 4.65786 6.86448 57.1143 152.205 0 1 3 0.00565465 0.00134907 0.00886446 -25.166 24.4405 -5.94318 
8564 536 2 12.01 0.14 2.22958 6.78424 6.80412 2.22958 6.78424 -42.3782 0 0 -1 0.00764612 -0.00660004 -0.00423121 -16.2861 -14.7876 -12.1956 
1578 99 3 1.008 0.03 8.05787 2.11964 5.74101 57.2402 -47.0627 54.9234 1 -1 1 0.00271793 0.00251764 -0.0207748 15.5774 -6.38442 3.7782 
1190 75 2 12.01 0.11 2.60665 2.50336 3.19315 -46.5757 2.50336 3.19315 -1 0 0 -0.00491635 -0.0104921 -0.00296814 11.7165 -36.3762 12.7933 
4412 276 3 1.008 0.03 7.17442 6.33732 6.73655 7.17442 55.5197 154.284 0 1 3 0.00909078 0.0059226 -0.00571066 4.04213 -1.03851 0.0588033 
1199 75 3 1.008 0.03 3.56535 1.94795 3.26903 -45.617 1.94795 3.26903 -1 0 0 0.0212841 -0.0324564 0.0288844 -11.4424 6.80743 -5.62454 
3037 190 3 1.008 0.03 5.82941 6.92034 0.864437 55.0118 56.1027 -48.3179 1 1 -1 0.011793 0.0275316 -0.00587249 10.6181 20.7632 11.8446 
4410 276 3 1.008 0.03 4.76153 7.55726 4.84129 4.76153 56.7396 152.388 0 1 3 -0.00327425 0.0406324 0.0295416 -5.55873 8.42465 14.5083 
4409 276 3 1.008 0.03 5.30567 7.61285 3.229 5.30567 56.7952 150.776 0 1 3 0.00260508 0.0083398 0.00728451 14.5515 -4.24002 11.3042 
1194 75 3 1.008 0.03 0.585835 3.38157 2.80771 -48.5965 3.38157 2.80771 -1 0 0 -0.0105935 0.00687345 -0.0189657 -17.1453 3.5988 -23.6294 
1186 75 1 16 -0.4 1.79281 2.01989 2.14324 -47.3895 2.01989 2.14324 -1 0 0 0.000567319 -0.00175587 0.000359367 13.6756 -4.74125 -9.76943 
1198 75 3 1.008 0.03 2.0648 2.26274 4.13255 -47.1175 2.26274 4.13255 -1 0 0 0.0192782 0.0273653 0.00633448 8.27042 13.8304 -7.54123 
1188 75 2 12.01 0.14 0.825438 2.97262 1.79584 -48.3569 2.97262 1.79584 -1 0 0 0.00194654 0.00853522 -0.00172727 -28.6556 2.98742 16.8635 
2440 153 3 1.008 0.03 8.59318 3.21887 1.04923 106.958 52.4012 50.2316 2 1 1 0.0291033 -0.0135174 0.0241842 11.5664 -3.48904 -7.96483 
1193 75 3 1.008 0.03 1.2205 3.81454 1.16432 -47.9618 3.81454 1.16432 -1 0 0 0.0193497 -0.0305105 0.00817456 -7.9214 -19.2607 11.2023 
848 53 3 1.008 0.03 5.41477 1.74155 6.08416 54.5971 100.106 -43.0982 1 2 -1 -0.00370882 -0.00458996 -0.0239502 -17.185 5.52922 -27.471 
8570 536 3 1.008 0.03 3.12802 7.35855 6.61886 3.12802 7.35855 -42.5635 0 0 -1 -0.00255121 -0.0158844 -0.000730939 4.87155 -1.19229 -11.5248 
838 53 2 12.01 0.11 5.46895 1.75273 7.13206 54.6513 100.117 -42.0503 1 2 -1 -0.00574401 0.00523607 0.00897052 58.4904 1.89263 19.3231 
4413 276 3 1.008 0.03 6.9946 4.6284 7.31584 6.9946 53.8107 154.863 0 1 3 0.00543803 -0.00328315 0.0133912 -7.97479 20.0427 -13.8297 
8561 536 1 16 -0.4 1.18316 4.71512 7.38193 1.18316 4.71512 -41.8004 0 0 -1 0.000530991 -0.000346854 -0.00185962 -3.37195 3.49068 19.1725 
847 53 3 1.008 0.03 6.07238 2.65125 7.36959 55.2547 101.016 -41.8128 1 2 -1 0.00876263 0.00351565 -0.0147139 -16.7121 -8.37146 4.09342 
3029 190 2 12.01 0.11 5.18982 6.21538 0.413898 54.3722 55.3977 -48.7685 1 1 -1 0.00343943 0.00090791 0.00108732 -39.2865 -37.2801 -32.7765 
3035 190 3 1.008 0.03 5.69016 5.24776 0.467914 54.8725 54.4301 -48.7144 1 1 -1 -0.00889363 -0.0278961 0.0141009 5.02819 3.69943 0.212905 
4748 297 3 1.008 0.03 12.814 0.87753 4.34624 -36.3683 50.0599 -94.0185 -1 1 -2 -0.0133707 -0.0167405 0.00944064 17.4543 -10.2533 -30.9297 
3248 203 3 1.008 0.03 15.2864 3.57748 1.06522 64.4687 52.7598 99.4299 1 1 2 -0.0143183 -0.0106741 -0.0451869 -23.3845 8.92307 -15.2589 
3237 203 2 12.01 0.11 12.8399 8.36851 1.74772 62.0222 57.5509 100.112 1 1 2 0.0018061 0.00325236 0.00174784 -45.7286 -8.89946 18.2172 
8797 550 3 1.008 0.03 16.0239 1.48287 6.04933 -82.3408 198.212 55.2317 -2 4 1 0.00238966 -0.0199011 0.00801015 -8.9045 4.71021 5.01819 
3241 203 3 1.008 0.03 15.5103 5.3628 2.53521 64.6927 54.5451 100.9 1 1 2 -0.00888696 -0.0307378 0.0200579 35.2953 -15.6392 32.5289 
1571 99 2 12.01 0.14 10.2062 2.12682 6.10212 59.3885 -47.0555 55.2845 1 -1 1 -0.0031274 -0.00464803 -0.00358783 7.11082 1.6775 -1.18185 
1570 99 1 16 -0.4 9.00142 1.16741 4.16999 58.1838 -48.0149 53.3523 1 -1 1 0.00601276 -0.00489053 -0.005758 -1.41875 1.37685 12.6969 
1572 99 2 12.01 0.14 8.9379 1.45665 5.57223 58.1202 -47.7257 54.7546 1 -1 1 0.00104372 0.00717776 -0.000240342 -14.5178 -1.66002 21.0184 
1575 99 3 1.008 0.03 11.0522 1.53604 5.70145 60.2346 -47.6463 54.8838 1 -1 1 -0.031344 -0.00237178 -0.012544 -3.79919 16.8787 -0.00486338 
1569 99 1 16 -0.4 10.0521 3.49793 5.68741 59.2344 -45.6844 54.8698 1 -1 1 -0.000623338 0.000857962 -0.00147825 2.04619 -8.82464 -3.97159 
1573 99 2 12.01 0.11 11.2348 4.25678 5.55075 60.4171 -44.9256 54.7331 1 -1 1 0.000405381 0.00655645 -0.00792624 21.1275 -13.2402 28.7311 
1580 99 3 1.008 0.03 11.949 3.85433 4.84941 61.1313 -45.328 54.0318 1 -1 1 0.0140206 0.00286556 0.0239453 1.59889 -10.7891 -4.21946 
1579 99 3 1.008 0.03 11.7593 4.35692 6.52942 60.9417 -44.8254 55.7118 1 -1 1 -0.0152939 0.0303463 -0.0155811 -9.26481 -0.409804 -14.0238 
1581 99 3 1.008 0.03 11.0291 5.22247 5.1639 60.2115 -43.9599 54.3462 1 -1 1 -0.0145905 0.00660578 -0.0146314 -8.17655 19.4983 -2.14497 
8775 549 3 1.008 0.03 16.2939 8.16929 5.40306 -32.8884 -41.0131 5.40306 -1 -1 0 0.0103961 -0.0113817 0.00238527 6.76891 6.04146 -2.51175 
2445 153 3 1.008 0.03 10.147 4.34268 2.80545 108.512 53.525 51.9878 2 1 1 -0.0110808 -0.00670996 0.00456118 3.14354 -1.35802 3.73651 
2444 153 3 1.008 0.03 11.7307 4.81195 2.08542 110.095 53.9943 51.2678 2 1 1 -0.0270005 0.0103623 0.0207557 -3.44637 -6.89262 10.936 
3240 203 3 1.008 0.03 14.8193 7.67695 3.04132 64.0017 56.8593 101.406 1 1 2 -0.0100318 0.0143966 -0.00519784 8.62387 8.83868 2.96427 
3235 203 2 12.01 0.14 15.0405 7.44294 2.00226 64.2228 56.6253 100.367 1 1 2 -0.00272507 0.00303677 0.0027201 50.0425 13.4101 16.8348 
8780 549 3 1.008 0.03 14.1439 5.77784 6.59314 -35.0385 -43.4045 6.59314 -1 -1 0 -0.0281413 0.0112058 0.00356582 0.447534 -20.2388 1.2229 
2437 153 2 12.01 0.11 10.9011 4.09202 2.05837 109.266 53.2744 51.2407 2 1 1 -0.00130181 0.00122884 -0.00133216 10.5161 11.0398 28.4619 
2443 153 3 1.008 0.03 11.2592 3.08306 2.20439 109.624 52.2654 51.3867 2 1 1 0.0102618 -0.0150772 0.003211 4.44228 -6.51103 0.650785 
8773 549 2 12.01 0.11 14.834 6.58744 6.50026 -34.3484 -42.5949 6.50026 -1 -1 0 -0.00249696 0.00296761 0.00379069 31.3243 19.9081 46.4852 
8779 549 3 1.008 0.03 14.3393 7.33657 5.94722 -34.843 -41.8458 5.94722 -1 -1 0 -0.00130787 -0.00920753 -0.022276 -4.62748 13.8684 -25.0407 
3236 203 2 12.01 0.14 14.9334 5.96036 1.94203 64.1157 55.1427 100.307 1 1 2 0.00390135 -0.00279947 -0.00372553 -73.0111 -9.56448 -98.7284 
1051 66 3 1.008 0.03 9.13859 7.14516 3.95769 -40.0438 -91.2195 151.505 -1 -2 3 0.0118114 -0.0147739 -0.0142354 42.3111 18.1366 6.55891 
1053 66 3 1.008 0.03 10.4687 7.53387 2.86665 -38.7137 -90.8308 150.414 -1 -2 3 0.00633833 3.33906e-05 0.0064373 3.23007 1.3723 -2.90811 
1045 66 2 12.01 0.11 10.0172 7.87129 3.78884 -39.1652 -90.4934 151.336 -1 -2 3 -0.00824879 -0.00337855 0.00737579 -26.0465 -30.048 28.9991 
1041 66 1 16 -0.4 11.0019 8.0722 4.86917 -38.1805 -90.2925 152.416 -1 -2 3 0.00540593 -0.00216078 0.00546535 -22.6005 -7.25136 -24.5779 
8789 550 2 12.01 0.11 16.643 0.928862 5.37749 -81.7217 197.658 54.5598 -2 4 1 -0.000220567 -0.00196248 0.00492803 3.30807 0.514603 -20.4319 
3242 203 3 1.008 0.03 13.8799 5.79011 2.25413 63.0623 54.9725 100.619 1 1 2 0.0131349 -0.00103179 -0.00206714 17.2593 -7.03533 -0.948732 
8769 549 1 16 -0.4 16.2313 6.32838 6.24192 -32.9511 -42.854 6.24192 -1 -1 0 0.000346873 0.00453474 0.00188398 -34.3219 -24.9136 -17.037 
3233 203 1 16 -0.4 14.0714 8.08676 1.17774 63.2537 57.2691 99.5424 1 1 2 0.000472429 0.00346514 0.00564651 22.7616 -0.566883 -33.4144 
3246 203 3 1.008 0.03 13.5317 4.1056 0.709185 62.7141 53.288 99.0739 1 1 2 -0.00203683 -0.0154701 -0.0303388 14.816 -6.48498 -6.42672 
1577 99 3 1.008 0.03 8.76056 0.555976 6.20718 57.9429 -48.6264 55.3895 1 -1 1 -0.00120241 -0.0212098 0.00960106 2.77863 9.56215 -15.806 
8795 550 3 1.008 0.03 16.5783 1.46755 4.41661 -81.7864 198.197 53.599 -2 4 1 -0.0117457 0.000156399 -0.0096139 4.09353 -4.55683 7.8719 
1049 66 3 1.008 0.03 12.2036 8.06991 7.3423 -36.9788 -90.2948 154.889 -1 -2 3 -0.00800278 0.0200769 -0.028926 -17.9117 14.6596 -5.75855 
1043 66 2 12.01 0.14 10.4041 8.42314 6.10954 -38.7783 -89.9416 153.657 -1 -2 3 0.000784958 0.0043882 -0.0066363 -20.9078 -3.19186 -28.8202 
1048 66 3 1.008 0.03 9.87268 7.52488 6.44963 -39.3097 -90.8398 153.997 -1 -2 3 -0.0211619 0.00757175 0.00141555 -1.5193 8.78747 5.84264 
3239 203 3 1.008 0.03 16.1504 7.66718 1.78247 65.3327 56.8495 100.147 1 1 2 -0.00433076 -0.0319374 -0.0188555 -44.9418 1.2142 4.22343 
4743 297 3 1.008 0.03 13.5717 0.491956 0.778972 -35.6107 49.6743 -97.5857 -1 1 -2 -0.00139111 -0.00563025 -0.00713249 -4.67617 -28.867 4.40778 
4800 300 3 1.008 0.03 13.8725 0.424025 6.79907 63.0549 0.424025 6.79907 1 0 0 0.011724 0.0101852 0.0249297 35.1578 17.839 -38.1469 
3245 203 3 1.008 0.03 11.9312 8.51809 1.07778 61.1135 57.7004 99.4425 1 1 2 -0.00476503 0.00676077 0.0101906 34.2735 -3.23093 9.62459 
3234 203 1 16 -0.4 15.0226 5.54191 0.496797 64.205 54.7243 98.8615 1 1 2 -0.00219176 9.88761e-05 0.000831844 -2.8808 -4.11871 55.077 
2433 153 1 16 -0.4 10.3699 4.31569 0.842508 108.735 53.498 50.0249 2 1 1 0.00185621 -0.00781512 0.00237736 -14.0238 4.33504 -46.0409 
3243 203 3 1.008 0.03 12.5656 7.54487 2.44279 61.7479 56.7272 100.807 1 1 2 0.0127532 0.0129005 -0.0221933 3.43665 13.261 -9.38245 
4747 297 3 1.008 0.03 14.2251 1.18174 3.26072 -34.9572 50.3641 -95.104 -1 1 -2 -0.0126107 -0.00601963 0.0129666 -5.52839 2.85688 -3.93639 
4741 297 2 12.01 0.11 13.4488 0.450659 3.4975 -35.7335 49.633 -94.8672 -1 1 -2 -0.000313631 0.00686046 -0.00249158 24.0145 20.5984 68.5093 
1576 99 3 1.008 0.03 10.3029 2.06712 7.20755 59.4852 -47.1152 56.3899 1 -1 1 0.0268154 -0.00775557 0.00807144 -5.54001 2.69642 -13.7862 
3251 204 2 12.01 0.14 24.9265 6.50927 0.850543 123.291 55.6916 99.2152 2 1 2 0.00533125 -0.00167242 -0.00830834 -43.038 -2.58668 7.19996 
5609 351 3 1.008 0.03 22.1526 1.87459 2.13252 120.517 51.0569 100.497 2 1 2 -0.0201574 -0.0199685 0.0217392 -32.3315 6.56459 -1.66085 
1444 91 2 12.01 0.14 23.2039 0.786292 5.79695 72.3862 99.151 54.9793 1 2 1 -0.00759173 0.00824959 0.0029553 -30.896 -53.0045 16.6719 
1446 91 2 12.01 0.11 24.9107 1.44191 7.31608 74.0931 99.8066 56.4984 1 2 1 0.00159675 0.00131803 -0.00444833 -34.3878 -51.5996 10.4689 
8222 514 3 1.008 0.03 24.5985 1.99385 2.23283 -24.5838 1.99385 2.23283 -1 0 0 0.00122658 -0.0122214 0.00443248 -6.17561 13.0562 4.04738 
2583 162 3 1.008 0.03 23.8378 6.1817 4.43816 23.8378 6.1817 53.6205 0 0 1 -0.00802158 0.0127868 -0.0270465 22.0751 24.568 -22.7695 
2589 162 3 1.008 0.03 24.7564 4.55225 7.12988 24.7564 4.55225 56.3122 0 0 1 0.021449 -0.00456555 0.00582334 1.15469 -13.5494 4.44047 
1442 91 1 16 -0.4 24.5949 0.717291 6.12198 73.7772 99.082 55.3043 1 2 1 -0.00167571 0.0044205 0.00383245 -2.8451 10.2227 5.78976 
8223 514 3 1.008 0.03 24.6265 2.3669 3.92072 -24.5559 2.3669 3.92072 -1 0 0 -0.000858862 -0.0181999 0.00491564 -6.43462 18.5367 -6.53143 
8776 549 3 1.008 0.03 17.068 7.88687 6.99041 -32.1143 -41.2955 6.99041 -1 -1 0 -0.00011001 -0.0146136 -0.00904511 5.82404 -0.219997 -12.3131 
8224 514 3 1.008 0.03 23.744 3.53334 2.69366 -25.4384 3.53334 2.69366 -1 0 0 0.0232644 -0.0128121 0.0183057 16.004 -19.4663 13.6368 
8771 549 2 12.01 0.14 16.9295 7.4929 5.97406 -32.2528 -41.6894 5.97406 -1 -1 0 -0.00642384 0.00404378 -0.000293831 -3.44965 -2.93659 17.529 
5615 351 3 1.008 0.03 19.2036 1.33635 2.89662 117.568 50.5187 101.261 2 1 2 0.0247441 -0.0228105 0.00444018 -3.77685 3.48237 -6.15482 
5606 351 2 12.01 0.11 19.5198 2.37219 3.03133 117.885 51.5545 101.396 2 1 2 -0.000291202 0.00127629 0.00447119 0.741431 -3.36281 4.01177 
2578 162 1 16 -0.4 21.5991 3.85189 5.09774 21.5991 3.85189 54.2801 0 0 1 -0.00395758 -0.00010115 -0.000315763 -3.26977 -3.5932 -2.4839 
8777 549 3 1.008 0.03 18.7531 8.11333 5.20341 -30.4292 -41.069 5.20341 -1 -1 0 0.0170587 -0.0124849 0.0100027 6.24833 -17.3711 16.4735 
2580 162 2 12.01 0.14 22.0528 5.08108 4.59026 22.0528 5.08108 53.7726 0 0 1 -0.00130511 0.000552289 -0.00261287 74.2507 -23.261 -31.5331 
2586 162 3 1.008 0.03 22.1798 4.90472 3.46188 22.1798 4.90472 52.6442 0 0 1 0.0117415 -0.00920443 0.0078117 -18.521 15.5773 36.9926 
8772 549 2 12.01 0.14 18.2214 7.13937 5.23877 -30.961 -42.043 5.23877 -1 -1 0 -0.00368104 0.002282 0.00741208 -20.3895 52.3685 -25.2702 
8774 549 2 12.01 0.11 19.1466 6.94164 3.10822 -30.0358 -42.2407 3.10822 -1 -1 0 -0.00663135 -0.00328897 -0.00144334 -14.6051 -3.49053 -30.8281 
5614 351 3 1.008 0.03 18.6773 2.97303 3.41084 117.042 52.1554 101.776 2 1 2 -0.0138766 -0.00842271 -0.00208219 4.35588 -1.83871 -11.2491 
8770 549 1 16 -0.4 17.9211 7.00401 3.86003 -31.2613 -42.1783 3.86003 -1 -1 0 -0.000446757 0.00156172 -0.00134409 14.2899 -3.09426 -8.73932 
8783 549 3 1.008 0.03 19.9552 7.47149 3.55344 -29.2272 -41.7109 3.55344 -1 -1 0 0.00688043 -0.00925319 0.0113105 11.9068 13.8711 5.32256 
8778 549 3 1.008 0.03 18.7843 6.32464 5.61868 -30.3981 -42.8577 5.61868 -1 -1 0 0.0117276 -0.00447866 -0.0166715 12.6051 -12.6488 12.7728 
8782 549 3 1.008 0.03 19.0753 7.28974 2.03583 -30.1071 -41.8926 2.03583 -1 -1 0 0.00473216 -0.0230311 0.00974529 -5.69431 -7.28106 26.4921 
8784 549 3 1.008 0.03 19.5031 5.92506 3.08081 -29.6793 -43.2573 3.08081 -1 -1 0 -0.00863418 0.0153791 -0.0071398 -0.723108 -9.72999 -0.803181 
5616 351 3 1.008 0.03 20.1843 2.31708 3.86899 118.549 51.4994 102.234 2 1 2 -0.0141343 0.0234319 0.000503629 9.47853 -0.400168 7.2808 
2585 162 3 1.008 0.03 21.4032 5.86797 4.85535 21.4032 5.86797 54.0377 0 0 1 -0.0125546 -0.0398078 -0.0028381 -17.8753 20.071 -4.24246 
5602 351 1 16 -0.4 20.2169 2.92288 1.90769 118.582 52.1052 100.272 2 1 2 -0.00429352 0.0073774 -0.00347071 -14.5802 -5.75079 9.3072 
3249 204 1 16 -0.4 23.4591 6.62237 0.984739 121.824 55.8047 99.3494 2 1 2 -9.05202e-05 -0.0044781 -0.000420773 49.2394 30.1331 9.08223 
8214 514 2 12.01 0.11 24.6158 2.85935 2.92716 -24.5665 2.85935 2.92716 -1 0 0 -0.00757912 0.00522873 0.000295557 14.989 0.549869 -24.0501 
3253 204 2 12.01 0.11 23.154 7.93589 1.50022 121.519 57.1182 99.8649 2 1 2 -0.00898051 -0.00362422 0.004921 25.0533 -57.8682 49.903 
3261 204 3 1.008 0.03 23.9079 8.26492 2.27239 122.273 57.4473 100.637 2 1 2 0.00474996 0.00834375 -0.0157433 -22.657 -10.548 -10.5248 
3260 204 3 1.008 0.03 22.1738 7.7662 1.95737 120.538 56.9486 100.322 2 1 2 -0.00929598 0.0139359 -0.00411919 -1.00117 18.584 -2.99613 
2590 162 3 1.008 0.03 22.3402 3.70935 6.96922 22.3402 3.70935 56.1516 0 0 1 -0.00563023 0.0363061 0.00990029 0.51829 -0.0706307 6.52786 
2579 162 2 12.01 0.14 23.5427 5.41281 5.06269 23.5427 5.41281 54.245 0 0 1 0.0048258 0.000871478 0.00913415 -55.0511 -25.8381 18.9446 
3258 204 3 1.008 0.03 24.5733 4.2895 0.618248 122.938 53.4718 98.9829 2 1 2 -0.0108452 -0.0182073 0.023045 2.56445 19.8478 -12.6328 
2591 162 3 1.008 0.03 20.9147 4.76161 6.84278 20.9147 4.76161 56.0251 0 0 1 -0.000589346 0.00374567 0.00325106 -6.83404 -4.32317 2.96534 
5603 351 2 12.01 0.14 20.9349 0.873813 0.568806 119.3 50.0562 98.9335 2 1 2 0.00421794 0.00670029 0.00195755 -52.236 -11.0296 -24.5465 
5604 351 2 12.01 0.14 21.3023 2.13764 1.44017 119.667 51.32 99.8049 2 1 2 -0.00515834 0.00181593 0.00501761 44.2704 -5.24138 -17.8557 
1449 91 3 1.008 0.03 22.9429 1.77251 5.5414 72.1253 100.137 54.7237 1 2 1 0.0110036 0.0101431 0.00979259 -3.42972 24.2136 -3.66638 
1450 91 3 1.008 0.03 22.4885 0.455133 6.62366 71.6708 98.8198 55.806 1 2 1 -0.00536646 0.0210302 -0.0151076 27.6358 10.9074 -20.0399 
2584 162 3 1.008 0.03 24.2229 4.54904 4.98758 24.2229 4.54904 54.1699 0 0 1 0.0200217 0.0213582 -0.00156295 -6.17572 6.39465 -4.25661 
2582 162 2 12.01 0.11 21.3779 3.83979 6.48751 21.3779 3.83979 55.6699 0 0 1 0.00171405 0.00556358 -0.0044893 4.96049 -8.51448 -10.9802 
2592 162 3 1.008 0.03 20.7863 2.92828 6.63259 20.7863 2.92828 55.8149 0 0 1 -0.0101025 -0.00146542 0.00138268 -2.01499 8.72032 10.4091 
5610 351 3 1.008 0.03 21.8375 2.88613 0.796349 120.202 52.0685 99.161 2 1 2 0.0216729 -0.00558794 0.000194946 -9.6536 -20.1822 8.25617 
2577 162 1 16 -0.4 23.4602 5.94828 6.37844 23.4602 5.94828 55.5608 0 0 1 -0.00535819 -0.00430986 0.00376784 -0.967547 -2.48306 -4.79388 
8785 550 1 16 -0.4 18.0001 0.832893 5.8074 -80.3646 197.562 54.9897 -2 4 1 -0.00281858 -0.00143613 -0.00983072 -4.51189 -17.733 27.116 
2581 162 2 12.01 0.11 24.5969 5.61052 7.1292 24.5969 5.61052 56.3115 0 0 1 -0.000731666 0.00555057 0.00202635 17.8032 24.397 49.0336 
8800 550 3 1.008 0.03 17.0166 4.12252 7.33507 -81.3481 200.852 56.5174 -2 4 1 -0.0146858 0.0217583 0.0266788 0.767953 -11.624 -0.419919 
1161 73 3 1.008 0.03 1.13027 16.6453 2.61784 1.13027 115.01 2.61784 0 2 0 0.0164372 -0.00294233 -0.0222668 8.4916 -1.30501 13.1104 
8354 523 1 16 -0.4 8.2567 11.9978 1.22266 106.621 11.9978 99.5874 2 0 2 0.00474392 -0.00124474 0.00311751 -52.08 31.1828 3.39263 
8574 536 3 1.008 0.03 1.58118 9.17276 5.63076 1.58118 9.17276 -43.5516 0 0 -1 -0.015475 -0.00044777 -0.0031289 -4.39311 -6.12089 4.95236 
1319 83 3 1.008 0.03 2.44677 13.5444 2.42612 51.6291 13.5444 2.42612 1 0 0 -0.00419597 -0.0390065 0.0199402 -18.6407 8.9198 -3.75076 
1316 83 2 12.01 0.14 3.58982 11.7344 2.44819 52.7722 11.7344 2.44819 1 0 0 0.00519498 0.00617333 -0.00765176 10.394 25.2002 34.9619 
1322 83 3 1.008 0.03 3.02698 11.1574 3.22531 52.2093 11.1574 3.22531 1 0 0 -0.0124661 0.0079305 0.000918008 5.47851 4.81034 -19.8383 
1321 83 3 1.008 0.03 4.64401 11.4212 2.50611 53.8264 11.4212 2.50611 1 0 0 -0.00570731 -0.00426047 0.0150663 -6.86875 4.60789 7.35591 
2487 156 3 1.008 0.03 2.20878 11.8059 6.78227 2.20878 11.8059 55.9646 0 0 1 0.028918 0.0021168 0.00661371 -11.1416 -6.53228 2.37585 
1315 83 2 12.01 0.14 3.44014 13.2881 2.69213 52.6225 13.2881 2.69213 1 0 0 0.000183994 -0.00203355 0.00140037 19.3409 -24.4086 3.87658 
1320 83 3 1.008 0.03 4.08214 13.8143 1.97246 53.2645 13.8143 1.97246 1 0 0 -0.0229681 0.0226857 -0.0317162 0.22097 1.27717 9.08926 
1323 83 3 1.008 0.03 4.86025 12.1457 4.80611 54.0426 12.1457 4.80611 1 0 0 -0.00789461 -0.0435164 0.0146572 -13.3823 -21.5394 4.39647 
1317 83 2 12.01 0.11 4.84355 13.1896 4.63404 54.0259 13.1896 4.63404 1 0 0 0.00330294 0.00136628 -0.00191687 0.939027 17.2186 13.4759 
1313 83 1 16 -0.4 3.63156 13.7166 4.05343 52.8139 13.7166 4.05343 1 0 0 0.00107622 0.00298557 0.00817936 18.3488 -17.5972 -12.6903 
415 26 3 1.008 0.03 3.82172 16.0658 5.32598 3.82172 16.0658 5.32598 0 0 0 -0.00127207 -0.00666037 -0.0144805 -25.2725 -23.4075 -11.4404 
1325 83 3 1.008 0.03 4.99713 13.6469 5.61149 54.1795 13.6469 5.61149 1 0 0 0.00774498 0.0260692 0.0229293 0.505858 -0.0267267 -1.42561 
1324 83 3 1.008 0.03 5.78324 13.3066 4.12404 54.9656 13.3066 4.12404 1 0 0 0.0188195 -0.019007 -0.00554547 0.231328 12.9919 -15.4249 
8029 502 3 1.008 0.03 7.48596 14.4761 2.16343 105.851 112.841 100.528 2 2 2 0.0113256 0.0243366 -0.0249593 -8.76578 -1.83815 9.02329 
4415 276 3 1.008 0.03 6.92407 9.54673 3.36597 6.92407 58.7291 150.913 0 1 3 -0.010372 -0.0119968 -0.0297284 -11.7736 6.8256 15.1773 
414 26 3 1.008 0.03 4.74825 16.605 6.65029 4.74825 16.605 6.65029 0 0 0 0.0126822 0.0174287 -0.010325 3.91083 -10.0662 1.08408 
4416 276 3 1.008 0.03 5.97057 9.75643 4.94764 5.97057 58.9388 152.495 0 1 3 -0.0133344 -0.0304721 -0.014223 -27.4332 14.9871 1.1661 
8017 502 1 16 -0.4 7.86219 16.428 2.56946 106.227 114.793 100.934 2 2 2 0.00199875 -0.00317579 0.00438501 51.7297 14.2547 -25.403 
4406 276 2 12.01 0.11 6.81445 9.3684 4.45905 6.81445 58.5507 152.006 0 1 3 -0.00226959 -0.000361031 -0.000684085 21.0037 -49.0226 -21.5172 
5465 342 3 1.008 0.03 8.47396 13.6385 5.80867 8.47396 62.8208 5.80867 0 1 0 -0.000508956 0.0171456 -0.00171097 1.21378 -13.2414 -10.5697 
8027 502 3 1.008 0.03 7.78282 14.9179 3.91223 106.148 113.283 102.277 2 2 2 0.0115619 0.0122373 0.00803682 1.66569 -6.81411 4.92914 
8021 502 2 12.01 0.11 7.34196 15.2106 2.9709 105.707 113.575 101.336 2 2 2 0.00714659 0.00254346 -0.00264698 20.4164 3.48381 -13.6823 
7135 446 3 1.008 0.03 0.686542 11.9483 4.42206 0.686542 -37.2341 53.6044 0 -1 1 -0.0110512 0.0228331 0.0109246 -12.7976 -0.73855 -3.06122 
8028 502 3 1.008 0.03 6.35218 15.5258 3.09484 104.717 113.89 101.46 2 2 2 0.0131695 -0.0307074 -0.00958106 -33.449 -9.14807 5.90438 
1314 83 1 16 -0.4 3.30655 11.5246 1.11223 52.4889 11.5246 1.11223 1 0 0 -0.000556683 0.00236241 -0.00332836 17.7981 -13.9187 -19.2867 
5472 342 3 1.008 0.03 7.86313 16.0549 6.5797 7.86313 65.2372 6.5797 0 1 0 -0.0122653 0.0140751 0.00660013 -2.55366 -14.7714 -2.47868 
4414 276 3 1.008 0.03 7.63562 9.83609 4.94077 7.63562 59.0184 152.488 0 1 3 -0.00681992 -0.0115351 -0.0077127 17.6767 6.45394 6.84535 
1327 83 3 1.008 0.03 1.69334 10.2784 1.53189 50.8757 10.2784 1.53189 1 0 0 -0.0119091 0.00981827 0.0314047 2.9719 -8.8108 7.71681 
406 26 2 12.01 0.11 4.53926 16.7616 5.59653 4.53926 16.7616 5.59653 0 0 0 -0.00702641 0.00012383 0.00342075 9.29618 -1.50887 32.7564 
416 26 3 1.008 0.03 5.41503 16.5538 5.04332 5.41503 16.5538 5.04332 0 0 0 -0.0351077 -0.0133452 0.0243997 19.3467 2.77567 -14.3918 
8359 523 3 1.008 0.03 5.8728 11.9366 0.465632 104.237 11.9366 98.8303 2 0 2 -0.00178471 -0.0189186 0.0157345 4.57196 4.43217 -11.5958 
1318 83 2 12.01 0.11 2.03247 11.0648 0.881243 51.2148 11.0648 0.881243 1 0 0 -0.00418265 0.00408565 -0.00201699 -50.9888 10.2405 -27.5839 
1328 83 3 1.008 0.03 1.34955 11.9216 1.04505 50.5319 11.9216 1.04505 1 0 0 0.00674706 0.00378088 0.00756214 6.60041 -10.6511 -1.95061 
2490 156 3 1.008 0.03 1.52647 14.1277 6.54725 1.52647 14.1277 55.7296 0 0 1 -0.0351658 0.00383366 0.0185111 -3.01888 -11.7046 23.2687 
2489 156 3 1.008 0.03 3.163 14.1713 6.57611 3.163 14.1713 55.7585 0 0 1 -0.0191001 0.00107901 0.0137271 -14.538 -5.74538 26.9411 
2492 156 3 1.008 0.03 4.19271 10.1869 6.94952 4.19271 10.1869 56.1319 0 0 1 -0.00619003 0.017053 0.00345808 0.93602 1.55438 -7.33335 
5466 342 3 1.008 0.03 7.86451 13.2419 7.36011 7.86451 62.4242 7.36011 0 1 0 -0.0170273 0.0119948 0.000320715 -12.0062 -3.78772 6.91986 
2484 156 2 12.01 0.14 2.33135 13.8851 7.27886 2.33135 13.8851 56.4612 0 0 1 -0.000577379 0.0109286 -0.00152317 25.4266 1.18217 -49.6049 
2495 156 3 1.008 0.03 2.44445 16.4429 7.31812 2.44445 16.4429 56.5005 0 0 1 0.0106815 -0.0115364 -0.0476526 0.106983 5.08067 3.89945 
1052 66 3 1.008 0.03 9.45333 8.75922 3.59623 -39.729 -89.6055 151.143 -1 -2 3 0.00311686 -0.0162255 -0.0121548 3.29155 17.3836 -4.60788 
8358 523 2 12.01 0.11 9.41621 11.5993 1.7592 107.781 11.5993 100.124 2 0 2 0.00543262 -0.00412789 -0.00458283 34.7797 4.48488 10.318 
8366 523 3 1.008 0.03 9.45503 10.5724 1.89974 107.82 10.5724 100.264 2 0 2 0.0164503 0.00560897 0.00238976 1.1748 -37.5465 -6.91703 
5458 342 1 16 -0.4 9.29866 14.6866 7.28574 9.29866 63.8689 7.28574 0 1 0 -0.0018001 -0.000834262 -0.00412192 1.4384 -3.0801 8.09361 
4951 310 3 1.008 0.03 16.7079 15.6436 1.26207 65.8903 15.6436 1.26207 1 0 0 -0.00141823 -0.0152754 -0.016872 -0.818431 16.8253 -18.5636 
5460 342 2 12.01 0.14 8.77157 13.4387 6.82695 8.77157 62.6211 6.82695 0 1 0 0.0062773 -0.00236332 0.00343933 5.06579 24.5177 7.21507 
8023 502 3 1.008 0.03 9.79255 15.9714 2.88477 108.157 114.336 101.249 2 2 2 0.00860323 0.00807059 -0.0260639 19.7632 -20.604 22.0748 
722 46 1 16 -0.4 13.4601 13.177 1.04467 13.4601 -134.37 1.04467 0 -3 0 0.00124035 0.00305708 -0.00147039 36.486 6.65009 25.3423 
8019 502 2 12.01 0.14 9.23851 16.2696 2.05475 107.603 114.634 100.419 2 2 2 0.00663484 0.00439952 0.0024042 -66.7858 9.93564 -6.00888 
3244 203 3 1.008 0.03 12.957 9.27209 2.33272 62.1393 58.4544 100.697 1 1 2 -0.00276634 -0.0105345 0.00536766 -1.85802 3.66861 4.62462 
734 46 3 1.008 0.03 11.5704 13.7353 1.41125 11.5704 -133.812 1.41125 0 -3 0 -0.00757719 -0.0158552 -0.0119688 13.0832 12.8791 -5.33938 
5469 342 3 1.008 0.03 12.3489 12.6022 6.56705 12.3489 61.7845 6.56705 0 1 0 0.0103702 0.0227069 -0.0254991 3.00804 -0.400247 13.7471 
5461 342 2 12.01 0.11 11.6204 12.7833 5.80022 11.6204 61.9657 5.80022 0 1 0 -0.00487398 0.00362671 -0.00304491 18.059 -0.764148 -43.1122 
5457 342 1 16 -0.4 10.4812 11.9582 5.90182 10.4812 61.1405 5.90182 0 1 0 -0.000869742 0.00134087 0.00536555 -16.5484 -2.17315 15.5764 
5468 342 3 1.008 0.03 11.3467 13.847 5.77848 11.3467 63.0294 5.77848 0 1 0 -0.00384356 0.00310551 -0.0131735 3.70119 -4.58851 -0.464998 
5467 342 3 1.008 0.03 12.1856 12.5188 4.84969 12.1856 61.7011 4.84969 0 1 0 0.0154797 -0.0100336 -0.0224871 -19.6926 10.5412 23.5553 
1829 115 2 12.01 0.11 16.1051 12.1167 6.79799 16.1051 12.1167 -140.749 0 0 -3 0.00915204 -0.0044388 -0.00384682 30.6207 61.633 20.6905 
726 46 2 12.01 0.11 12.5811 14.1999 1.333 12.5811 -133.347 1.333 0 -3 0 0.000245388 -0.00267624 -0.00636542 -44.9911 -6.79604 -8.41439 
735 46 3 1.008 0.03 12.7332 14.6107 2.32233 12.7332 -132.936 2.32233 0 -3 0 -0.00788613 -0.0101599 0.00483183 8.96821 7.95517 1.40949 
1837 115 3 1.008 0.03 15.5452 12.9728 6.40611 15.5452 12.9728 -141.141 0 0 -3 0.014659 -0.022291 -0.034609 10.3873 3.97804 2.06086 
1839 115 3 1.008 0.03 15.5941 11.1871 1.18878 15.5941 11.1871 -146.358 0 0 -3 -0.00702201 -0.00678187 -0.00302163 3.35331 -3.23092 -8.9079 
736 46 3 1.008 0.03 12.5952 14.9542 0.537777 12.5952 -132.593 0.537777 0 -3 0 -0.00537791 0.00904361 -0.029225 -1.52007 0.996159 5.8809 
5459 342 2 12.01 0.14 9.70126 12.2419 7.08915 9.70126 61.4243 7.08915 0 1 0 0.00126817 -0.00742547 -0.012892 36.5164 19.5058 -11.9136 
1047 66 3 1.008 0.03 9.70451 9.27591 5.93667 -39.4778 -89.0888 153.484 -1 -2 3 0.011787 0.00857984 -0.0223893 7.12295 -16.5906 4.51599 
1050 66 3 1.008 0.03 12.0539 9.68409 6.54383 -37.1284 -88.6806 154.091 -1 -2 3 -0.0250999 -0.0272841 -0.00252291 -2.60419 -15.2448 0.454008 
5463 342 3 1.008 0.03 9.02713 11.4052 7.28503 9.02713 60.5876 7.28503 0 1 0 -0.0138441 0.0136663 -0.0130283 10.2659 -5.21615 6.90668 
1044 66 2 12.01 0.14 11.4783 8.87532 7.04093 -37.7041 -89.4894 154.588 -1 -2 3 0.00654139 0.00245629 0.00660118 34.5015 21.787 19.922 
1825 115 1 16 -0.4 16.2038 11.2381 5.80054 16.2038 11.2381 -141.747 0 0 -3 -0.00175341 0.000350765 0.000808102 12.8848 -40.1723 -24.8086 
1833 115 3 1.008 0.03 16.1312 9.84647 3.63406 16.1312 9.84647 -143.913 0 0 -3 -0.00712812 -0.0244833 0.0143354 3.30292 20.4192 7.05837 