ITEM: TIMESTEP
0
ITEM: NUMBER OF ATOMS
10479
ITEM: BOX BOUNDS pp pp pp
4.0882558190751794e-01 4.9591174418091420e+01
4.0882558190751794e-01 4.9591174418091420e+01
4.0882558190751794e-01 4.9591174418091420e+01
ITEM: ATOMS id mol type mass q x y z xu yu zu ix iy iz vx vy vz fx fy fz 
3429 215 2 12.01 0.11 5.82479 3.77447 4.46724 55.0071 3.77447 53.6496 1 0 1 0.00373959 0.00439987 -0.000259612 22.0096 14.7837 12.5121 
3425 215 1 16 -0.4 6.2701 3.14425 3.3155 55.4525 3.14425 52.4979 1 0 1 0.00430165 -0.00673523 0.0058492 -4.40124 3.43772 -26.7152 
3437 215 3 1.008 0.03 6.30662 4.77793 4.56399 55.489 4.77793 53.7463 1 0 1 -0.0214116 -0.0268976 -0.000345412 -14.0306 -14.3434 -0.694897 
3435 215 3 1.008 0.03 4.74602 3.80225 4.5943 53.9284 3.80225 53.7766 1 0 1 -0.00369007 -0.0122742 -0.0217812 -3.16657 2.09005 -2.7212 
2438 153 2 12.01 0.11 2.27758 1.32595 2.53373 100.642 50.5083 51.7161 2 1 1 0.00768767 0.00224189 0.00263506 4.95509 -33.6169 -7.46872 
8395 525 3 1.008 0.03 3.51554 8.22669 4.95956 101.88 106.591 -93.4051 2 2 -2 0.016014 -0.00926919 0.0223453 0.371959 12.7205 6.5936 
8385 525 1 16 -0.4 3.7032 6.76459 3.59807 102.068 105.129 -94.7666 2 2 -2 0.00629481 -0.00105749 -0.00152038 13.8091 -7.71363 -35.1527 
8389 525 2 12.01 0.11 3.13136 7.25027 4.74761 101.496 105.615 -93.6171 2 2 -2 0.00369487 0.00636663 0.0019991 -51.1871 -11.5376 -12.5597 
2448 153 3 1.008 0.03 2.35583 1.66344 3.56777 100.721 50.8458 52.7501 2 1 1 0.0181399 0.00277011 -0.0167164 -0.456162 4.31897 -1.89153 
8397 525 3 1.008 0.03 3.29121 6.53831 5.53987 101.656 104.903 -92.8248 2 2 -2 0.00431234 0.0134672 -0.013397 5.25945 0.191947 9.91951 
7532 471 3 1.008 0.03 5.08604 6.33413 6.96095 -44.0963 6.33413 6.96095 -1 0 0 0.00692736 0.00775805 0.0219941 -11.0839 -19.6046 -1.58531 
2447 153 3 1.008 0.03 2.26616 2.12914 1.82917 100.631 51.3115 51.0115 2 1 1 0.010426 0.00215827 -0.00191549 5.66736 15.0737 -3.36612 
3431 215 3 1.008 0.03 4.81134 3.97336 2.05972 53.9937 3.97336 51.2421 1 0 1 0.026139 0.0266039 0.0185924 2.01197 1.56806 -0.306415 
8391 525 3 1.008 0.03 2.37121 7.1007 1.94437 100.736 105.465 -96.4203 2 2 -2 0.0266614 0.0267014 -0.0242514 16.6033 -1.72122 8.55119 
2848 178 3 1.008 0.03 1.74483 0.993927 6.93134 1.74483 50.1763 56.1137 0 1 1 0.0064754 -0.000264412 -0.015522 13.633 -9.01632 1.95192 
8393 525 3 1.008 0.03 4.84426 6.25942 1.24139 103.209 104.624 -97.1233 2 2 -2 0.0212212 -0.0249089 -0.0174539 -17.9465 0.156912 -4.94863 
8388 525 2 12.01 0.14 4.53991 7.30359 1.34972 102.905 105.668 -97.015 2 2 -2 0.00767343 -0.00148558 0.00680663 17.2902 -12.7925 27.8632 
8387 525 2 12.01 0.14 3.33437 7.45816 2.37984 101.699 105.823 -95.9849 2 2 -2 0.00579131 0.00566619 0.0064042 9.9067 10.2233 -9.80936 
8392 525 3 1.008 0.03 3.14138 8.53743 2.56626 101.506 106.902 -95.7984 2 2 -2 0.00956008 -0.0256508 -0.0195359 6.07922 -13.9352 -0.450835 
3432 215 3 1.008 0.03 6.36978 4.79509 2.03758 55.5521 4.79509 51.2199 1 0 1 -0.0187046 -0.00444205 0.0144059 5.21173 6.71038 3.33505 
8396 525 3 1.008 0.03 2.02503 7.23068 4.53549 100.39 105.595 -93.8292 2 2 -2 0.0204308 0.0233485 -0.00658913 22.3538 9.64621 11.5156 
3427 215 2 12.01 0.14 5.89528 3.82874 2.10709 55.0776 3.82874 51.2894 1 0 1 -0.00757094 -0.00115312 0.00447513 -2.59875 -3.39029 35.7895 
8554 535 3 1.008 0.03 8.54778 8.08369 2.00156 57.7301 57.266 100.366 1 1 2 -0.00652639 0.0139389 0.00218287 9.54052 -11.3675 4.66525 
8386 525 1 16 -0.4 5.81966 7.77574 1.87302 104.184 106.14 -96.4917 2 2 -2 -0.00295633 -0.00313937 -0.00181211 -33.7545 -2.6982 -9.53412 
3374 211 3 1.008 0.03 6.64823 1.58174 6.64422 6.64823 1.58174 154.191 0 0 3 -0.0142262 -0.0213882 0.0223776 -14.7157 -9.12241 -12.4626 
3434 215 3 1.008 0.03 7.32246 2.4283 1.17288 56.5048 2.4283 50.3552 1 0 1 -0.021712 0.0185234 -0.0191246 -6.97041 12.9447 7.935 
3430 215 2 12.01 0.11 5.74325 0.682613 0.880197 54.9256 0.682613 50.0625 1 0 1 -0.00306215 -0.000711364 0.00187208 10.1686 -0.65662 39.4641 
3426 215 1 16 -0.4 5.32976 2.01237 0.791857 54.5121 2.01237 49.9742 1 0 1 0.00537427 -0.00470915 -0.00655932 -7.76036 16.0042 -3.66827 
3436 215 3 1.008 0.03 6.25966 3.12996 5.2273 55.442 3.12996 54.4096 1 0 1 0.00927873 0.0153791 -0.0210155 -5.68744 7.18859 6.08437 
8560 535 3 1.008 0.03 8.48095 5.45264 3.5304 57.6633 54.635 101.895 1 1 2 0.00605458 -0.0270194 0.0120488 4.01892 13.3297 -2.57257 
8559 535 3 1.008 0.03 7.74258 7.03074 3.92137 56.9249 56.2131 102.286 1 1 2 -0.0186999 0.0192799 0.0125376 -10.2508 0.540669 0.442688 
2434 153 1 16 -0.4 1.12612 0.536508 2.34509 99.4908 49.7189 51.5274 2 1 1 -0.0065368 0.00463925 -0.00244067 -27.9613 0.0484526 29.7401 
3376 211 3 1.008 0.03 4.9766 1.64964 7.11378 4.9766 1.64964 154.661 0 0 3 -0.0106968 0.00337156 0.0105445 7.01634 -7.09481 8.60607 
7525 471 2 12.01 0.11 6.08824 6.67762 6.85381 -43.0941 6.67762 6.85381 -1 0 0 -0.00342842 -0.00138491 0.00282297 -11.3765 51.7428 60.1206 
7531 471 3 1.008 0.03 6.80781 5.90343 6.77458 -42.3745 5.90343 6.77458 -1 0 0 0.0159038 -0.019343 -0.0206881 12.4569 -15.7378 -4.61176 
7533 471 3 1.008 0.03 6.06908 7.31776 6.02649 -43.1133 7.31776 6.02649 -1 0 0 0.0255365 -0.0178189 0.0124885 4.95952 10.5142 -30.1145 
3428 215 2 12.01 0.14 6.36497 2.96164 1.00455 55.5473 2.96164 50.1869 1 0 1 -0.00485147 -0.00404968 -0.00136538 23.094 -20.4038 -29.1997 
3439 215 3 1.008 0.03 6.39412 0.471923 1.78115 55.5765 0.471923 50.9635 1 0 1 -0.0021394 -0.0203597 0.0181485 -17.4661 5.8321 -20.0185 
3366 211 2 12.01 0.11 5.83084 0.954205 7.04316 5.83084 0.954205 154.59 0 0 3 -0.000154987 -0.00516704 -0.000968461 -9.56504 4.32806 9.54399 
5376 336 3 1.008 0.03 8.46909 8.34508 6.62153 -89.8956 -40.8373 6.62153 -2 -1 0 0.0154772 0.0200115 0.00513705 13.5662 -1.5317 13.2586 
1691 106 3 1.008 0.03 8.41409 0.683335 3.4781 8.41409 -97.6814 3.4781 0 -2 0 -0.0163068 0.0240066 -0.00379432 -6.63019 -18.3258 -18.7445 
2446 153 3 1.008 0.03 3.09749 0.627736 2.32334 101.462 49.8101 51.5057 2 1 1 0.00927875 0.0156505 -0.0110326 3.70803 12.3753 3.56881 
8551 535 3 1.008 0.03 9.29853 5.65425 1.49245 58.4809 54.8366 99.8571 1 1 2 0.0230848 0.0228005 -0.002797 18.4132 4.60812 -1.55606 
1690 106 3 1.008 0.03 11.9385 3.75909 1.08274 11.9385 -94.6056 1.08274 0 -2 0 0.0153214 0.00404416 -0.0128756 19.9101 27.8704 -6.09656 
1685 106 2 12.01 0.11 9.22842 1.36491 3.54309 9.22842 -96.9998 3.54309 0 -2 0 0.00279177 -0.00364395 0.0029976 -34.8351 29.2473 23.7902 
1693 106 3 1.008 0.03 8.62507 2.23987 3.881 8.62507 -96.1248 3.881 0 -2 0 0.0144889 -0.00514826 0.0150336 22.1778 -4.94758 -5.06419 
1681 106 1 16 -0.4 9.97141 1.58632 2.38152 9.97141 -96.7784 2.38152 0 -2 0 -0.00413522 0.00447447 0.0033498 -2.138 -13.881 -24.007 
271 17 3 1.008 0.03 13.6867 6.55242 3.05933 62.869 6.55242 3.05933 1 0 0 0.0114155 -0.0068188 0.0138953 -3.25693 25.4715 -5.79776 
258 17 1 16 -0.4 13.9831 4.61386 2.8294 63.1654 4.61386 2.8294 1 0 0 -0.000852911 0.00542842 -0.00280826 52.23 -0.381568 10.7234 
265 17 3 1.008 0.03 15.6309 4.74922 4.14173 64.8133 4.74922 4.14173 1 0 0 -0.00158018 0.00178847 0.0158337 10.4089 -12.7143 20.9488 
1688 106 3 1.008 0.03 11.6342 2.43391 3.27013 11.6342 -95.9308 3.27013 0 -2 0 0.00708541 0.00831999 -0.0185321 -3.73996 2.96591 -16.3819 
8550 535 2 12.01 0.11 8.63349 6.4313 4.023 57.8158 55.6136 102.388 1 1 2 0.00153197 0.00507574 0.00637331 -8.21028 -20.5658 12.0595 
8558 535 3 1.008 0.03 8.72064 6.15486 5.08678 57.903 55.3372 103.451 1 1 2 -0.00615895 0.0106501 0.0106625 4.07996 8.53931 -7.18495 
8548 535 2 12.01 0.14 9.55254 7.66534 2.21575 58.7349 56.8477 100.58 1 1 2 -0.00399989 0.00377187 -0.00308151 2.90671 0.889228 9.08186 
8546 535 1 16 -0.4 9.71997 7.20118 3.56315 58.9023 56.3835 101.928 1 1 2 0.00445763 0.00282381 -0.000384024 1.20612 0.859205 -8.71384 
267 17 3 1.008 0.03 14.9052 2.33103 3.64647 64.0875 2.33103 3.64647 1 0 0 -0.0114675 0.00350532 -0.0177677 -7.7639 -14.2257 -4.04999 
261 17 2 12.01 0.11 15.5001 1.72514 2.95008 64.6824 1.72514 2.95008 1 0 0 0.00113971 0.00728764 -0.000981422 16.8678 44.779 -9.28437 
5462 342 2 12.01 0.11 16.2082 7.90667 4.89911 16.2082 57.089 4.89911 0 1 0 0.00673066 -0.00308018 -0.0057617 -12.8645 -14.3563 3.88151 
257 17 1 16 -0.4 16.6259 2.54592 2.5712 65.8083 2.54592 2.5712 1 0 0 -0.000830371 0.0033414 0.00579622 0.130781 -7.56796 21.0292 
259 17 2 12.01 0.14 16.2783 3.86225 2.1383 65.4606 3.86225 2.1383 1 0 0 -0.00490665 -0.00511847 -0.00120807 -28.7131 13.4745 -20.621 
5946 372 3 1.008 0.03 11.8882 3.59684 6.09329 11.8882 101.962 55.2756 0 2 1 -0.0149661 0.00894857 -0.0229878 -15.8737 24.6011 -9.69419 
5940 372 2 12.01 0.14 12.721 3.27396 6.65202 12.721 101.639 55.8344 0 2 1 0.00257401 -0.00500297 -0.00697018 57.2158 -40.4857 -14.0864 
5945 372 3 1.008 0.03 13.1648 2.52715 5.96632 13.1648 100.892 55.1487 0 2 1 -0.0107735 0.0145673 -0.00661608 -6.96217 1.85072 11.7866 
260 17 2 12.01 0.14 15.4462 4.79621 3.10212 64.6286 4.79621 3.10212 1 0 0 -0.0061006 -0.00442111 0.0055555 -50.408 -2.40577 -41.8485 
8553 535 3 1.008 0.03 10.193 8.55183 2.22483 59.3753 57.7342 100.59 1 1 2 -0.00421205 -0.00472978 0.00226891 4.03573 -6.57599 -15.0031 
264 17 3 1.008 0.03 15.6429 3.65067 1.23612 64.8252 3.65067 1.23612 1 0 0 -0.0168125 -0.0204935 -0.00708289 16.2348 13.1336 13.6978 
5471 342 3 1.008 0.03 16.7431 7.10847 5.46783 16.7431 56.2908 5.46783 0 1 0 0.0245236 -0.0232057 -0.00921661 -12.7902 9.25556 -9.37343 
8552 535 3 1.008 0.03 10.9845 6.22595 1.27168 60.1669 55.4083 99.6364 1 1 2 -0.000756508 0.0241688 0.0120372 14.0895 -1.62072 8.16663 
8547 535 2 12.01 0.14 9.95475 6.51265 1.2349 59.1371 55.695 99.5996 1 1 2 -0.00515371 0.0036725 0.00693043 -46.6951 1.20663 -8.31513 
5470 342 3 1.008 0.03 15.1741 7.60842 4.5623 15.1741 56.7908 4.5623 0 1 0 -0.0185492 0.00438914 -0.0142051 29.2331 -2.53921 8.39275 
1683 106 2 12.01 0.14 10.9255 2.61661 2.43107 10.9255 -95.7481 2.43107 0 -2 0 -0.00716046 0.0044555 -0.00741066 -7.21045 -2.63516 42.1836 
266 17 3 1.008 0.03 15.6786 5.85087 2.87314 64.861 5.85087 2.87314 1 0 0 0.0104113 0.0252965 -0.00347808 4.15195 -11.2694 -4.19968 
1687 106 3 1.008 0.03 10.3675 3.51895 2.70042 10.3675 -94.8457 2.70042 0 -2 0 -0.00312193 -0.00277385 -0.0239484 3.94773 0.609448 -2.53883 
268 17 3 1.008 0.03 15.0096 1.42623 2.054 64.1919 1.42623 2.054 1 0 0 -0.0163993 -0.0127527 0.0121232 -19.0635 4.12162 -11.839 
1682 106 1 16 -0.4 12.455 1.80693 0.786677 12.455 -96.5578 0.786677 0 -2 0 -0.0059498 -0.00619871 0.00353272 14.1092 -20.8079 3.21615 
5938 372 1 16 -0.4 13.7744 4.19305 6.90619 13.7744 102.558 56.0885 0 2 1 0.000398225 0.00126552 -0.00252241 -6.57367 37.3989 -7.47011 
262 17 2 12.01 0.11 13.2601 5.65787 3.42615 62.4425 5.65787 3.42615 1 0 0 0.00326912 -0.00459639 -0.00402994 -30.4013 -21.8447 15.8626 
272 17 3 1.008 0.03 12.1706 5.58986 3.20008 61.353 5.58986 3.20008 1 0 0 0.00609231 0.0110132 -0.0115028 18.1735 2.75686 -2.5163 
270 17 3 1.008 0.03 13.3096 5.63401 4.52554 62.492 5.63401 4.52554 1 0 0 -0.010455 0.00192691 0.0120413 5.99358 0.237152 -7.03901 
1684 106 2 12.01 0.14 11.5553 2.78912 1.08053 11.5553 -95.5756 1.08053 0 -2 0 -0.0062065 0.00576302 0.000831022 -27.8829 -2.51247 3.53032 
5951 372 3 1.008 0.03 15.554 3.1663 6.83917 15.554 101.531 56.0215 0 2 1 -0.0104582 0.0021501 0.0234815 18.5213 -12.7189 -24.9712 
269 17 3 1.008 0.03 15.742 0.800211 3.37761 64.9244 0.800211 3.37761 1 0 0 -0.021101 -0.0111594 0.01531 13.911 -19.0028 18.7542 
1692 106 3 1.008 0.03 9.7817 0.946577 4.34411 9.7817 -97.4181 4.34411 0 -2 0 -0.0148273 0.0121634 0.0253182 18.5584 7.62042 10.5904 
5374 336 3 1.008 0.03 10.0111 8.46396 5.98953 -88.3536 -40.7184 5.98953 -2 -1 0 -0.0249859 0.00655243 -0.0241308 8.73325 7.83741 14.1421 
8541 534 3 1.008 0.03 12.6522 8.03501 4.59206 61.8345 8.03501 -44.5903 1 0 -1 -0.0117264 -0.0116478 -0.010112 3.34268 14.9875 -0.280258 
6015 376 3 1.008 0.03 16.6972 6.80516 0.634072 16.6972 55.9875 49.8164 0 1 1 0.0221113 -0.0248281 -0.0148266 -8.4533 -0.935906 -3.89564 
8828 552 3 1.008 0.03 21.2026 0.738143 6.76185 21.2026 99.1028 55.9442 0 2 1 0.0234 0.00794812 0.018713 -19.9921 4.47761 -1.33798 
5458 342 1 16 -0.4 16.9866 8.33786 3.81041 16.9866 57.5202 3.81041 0 1 0 -0.00675956 0.00193897 -0.00255407 26.1683 14.0971 -5.76089 
10262 645 6 16 -0.53 23.9196 0.474599 5.26322 23.9196 49.6569 5.26322 0 1 0 0.00151481 -0.00609683 0.00172056 -3.81387 11.0132 -15.8068 
263 17 3 1.008 0.03 17.1316 4.48814 1.80739 66.3139 4.48814 1.80739 1 0 0 0.0107404 -0.0255925 -0.0166939 -2.56847 -19.3408 3.44287 
8825 552 3 1.008 0.03 17.8155 3.97498 4.27664 17.8155 102.34 53.459 0 2 1 -0.0115039 -0.0127243 0.000947688 3.13314 0.221889 -2.88237 
8830 552 3 1.008 0.03 19.0461 6.10912 3.2603 19.0461 104.474 52.4427 0 2 1 0.00405872 -0.0214869 -0.010988 -18.1265 5.9533 -16.7003 
8821 552 2 12.01 0.11 20.1974 0.890032 6.30293 20.1974 99.2547 55.4853 0 2 1 0.00357048 0.00420171 -0.00181704 23.8071 -7.74708 -11.2348 
8823 552 3 1.008 0.03 18.7453 1.82621 4.38279 18.7453 100.191 53.5651 0 2 1 -0.0173678 0.0244026 -0.0150395 6.02042 11.0225 22.8989 
8822 552 2 12.01 0.11 19.8774 5.661 3.72985 19.8774 104.026 52.9122 0 2 1 -0.00319226 -0.00480333 0.00367072 25.5642 -0.868525 7.88132 
8831 552 3 1.008 0.03 19.8662 6.05336 4.74158 19.8662 104.418 53.9239 0 2 1 0.00163915 0.0172581 0.0157661 12.38 12.6854 -0.789263 
8818 552 1 16 -0.4 19.7675 4.27852 3.87706 19.7675 102.643 53.0594 0 2 1 0.00611736 -0.00422001 -0.0025133 9.09536 -23.5454 0.275881 
8832 552 3 1.008 0.03 20.8275 5.88082 3.18009 20.8275 104.246 52.3624 0 2 1 0.0118936 0.00711376 -0.0206763 -18.6378 3.58736 12.6398 
798 50 3 1.008 0.03 21.4343 8.14191 5.61345 70.6166 8.14191 5.61345 1 0 0 -0.000699929 -0.000505164 0.00317921 2.19096 -20.6605 13.3897 
399 25 3 1.008 0.03 22.1235 4.30038 5.43891 22.1235 53.4827 54.6213 0 1 1 -0.00569522 -0.00015038 0.00400232 -2.13422 -17.1613 -15.8012 
390 25 2 12.01 0.11 22.7192 5.1498 5.67823 22.7192 54.3322 54.8606 0 1 1 0.000760128 0.00275118 0.00450473 16.5971 -3.70497 32.504 
400 25 3 1.008 0.03 21.9058 5.80618 5.97697 21.9058 54.9885 55.1593 0 1 1 0.0213728 -0.0244762 -0.00782505 7.28056 11.2891 3.77183 
398 25 3 1.008 0.03 23.1895 5.6067 4.78239 23.1895 54.789 53.9647 0 1 1 0.0221143 0.0255289 -0.00152347 -0.810155 -10.3773 11.8437 
10260 645 5 32.06 1.02 24.4382 0.648507 6.58305 24.4382 49.8309 6.58305 0 1 0 0.00284229 0.00401091 -0.0018293 2.70262 23.2678 -15.6559 
386 25 1 16 -0.4 23.6197 4.73034 6.80129 23.6197 53.9127 55.9836 0 1 1 -0.0010109 0.00290686 -0.005829 -13.8172 35.1289 -39.1693 
8820 552 2 12.01 0.14 18.7655 3.88305 4.79336 18.7655 102.248 53.9757 0 2 1 -0.00424741 0.00473027 -0.00581622 -30.2347 11.6699 -12.3621 
8817 552 1 16 -0.4 20.0123 2.29397 6.0306 20.0123 100.659 55.2129 0 2 1 -0.00517011 -0.00285302 -0.00492594 -4.47141 -24.4923 8.01088 
8819 552 2 12.01 0.14 18.8128 2.47079 5.30234 18.8128 100.835 54.4847 0 2 1 0.00150821 -0.00170868 -0.00584191 -15.4564 -18.161 -23.7094 
9672 606 8 19 -0.16 24.1328 5.35483 2.65317 24.1328 54.5372 51.8355 0 1 1 0.00145381 -0.00357345 0.00123423 -17.474 10.6315 -6.32239 
8824 552 3 1.008 0.03 17.8825 2.27615 5.89551 17.8825 100.641 55.0779 0 2 1 -0.0166987 -0.00371412 -0.000517662 20.5332 0.49028 -5.49795 
8826 552 3 1.008 0.03 18.5941 4.56608 5.58597 18.5941 102.931 54.7683 0 2 1 0.00972529 -0.0131709 -0.0253033 7.5145 11.0144 20.6061 
6011 376 3 1.008 0.03 20.8785 3.44196 1.77881 20.8785 52.6243 50.9612 0 1 1 0.00805428 -0.022214 0.0180254 -1.75874 -5.22378 -3.39056 
2540 159 3 1.008 0.03 22.055 1.09944 2.19839 22.055 50.2818 51.3807 0 1 1 -8.33452e-05 0.0101733 0.0195548 2.43185 0.415915 -4.55197 
2539 159 3 1.008 0.03 23.4521 1.4042 1.07332 23.4521 50.5865 50.2557 0 1 1 -0.017308 -0.000981527 0.018571 -4.71906 -14.6437 13.3094 
5468 342 3 1.008 0.03 21.0165 8.07369 1.1696 21.0165 57.256 1.1696 0 1 0 -0.00684257 0.0115968 -0.013053 -0.144325 2.43574 -11.5505 
2533 159 2 12.01 0.11 22.933 0.648915 1.71703 22.933 49.8313 50.8994 0 1 1 0.00427196 0.00159682 -0.00448765 -5.20138 -7.38704 -3.58596 
5457 342 1 16 -0.4 19.6626 8.55224 2.41737 19.6626 57.7346 2.41737 0 1 0 0.00365585 -0.00460286 -0.00240451 2.63916 9.03202 28.8987 
6013 376 3 1.008 0.03 21.868 4.84429 1.46675 21.868 54.0266 50.6491 0 1 1 0.00194985 -0.0181925 0.0198637 13.7328 -12.2225 2.2637 
6005 376 2 12.01 0.11 21.3107 4.04255 0.981435 21.3107 53.2249 50.1638 0 1 1 -0.00294822 -0.00145947 0.00583496 13.5708 16.5657 11.433 
10261 645 6 16 -0.53 24.9193 1.97694 6.98181 24.9193 51.1593 6.98181 0 1 0 -0.00302622 0.00571675 8.74219e-05 -5.40125 2.67704 -14.7657 
6016 376 3 1.008 0.03 18.2853 6.47263 0.937357 18.2853 55.655 50.1197 0 1 1 -0.0151593 0.0143151 -0.0175181 13.4653 -3.35899 -3.09467 
759 48 3 1.008 0.03 7.3285 14.3145 2.36543 105.693 14.3145 2.36543 2 0 0 0.00857752 -0.008495 0.0262086 16.2349 -7.89188 -11.8548 
2461 154 3 1.008 0.03 4.12067 14.5764 2.31249 4.12067 14.5764 100.677 0 0 2 -0.00101709 -0.0194794 0.0169331 -5.86054 -4.02375 1.01549 
2463 154 3 1.008 0.03 1.33327 11.1611 2.77936 1.33327 11.1611 101.144 0 0 2 -0.010754 0.0167408 -0.00672498 -6.33765 13.3822 -5.82366 
2454 154 2 12.01 0.11 0.831303 10.7517 3.64257 0.831303 10.7517 102.007 0 0 2 0.0061084 -0.00383751 0.000246548 12.3261 -19.178 12.7907 
8390 525 2 12.01 0.11 5.87081 9.15472 1.66841 104.236 107.519 -96.6963 2 2 -2 0.00696774 -0.0068539 0.00610991 -59.5022 -6.21284 -20.8645 
8399 525 3 1.008 0.03 5.10236 9.70378 2.1921 103.467 108.068 -96.1726 2 2 -2 0.0198224 -0.0114034 -0.0212087 -1.52464 -0.574481 13.0761 
2457 154 3 1.008 0.03 1.80384 12.8447 6.04532 1.80384 12.8447 104.41 0 0 2 -0.00320065 -0.0250104 0.0120487 2.30655 5.71395 -4.74737 
2452 154 2 12.01 0.14 1.17697 12.6279 5.17769 1.17697 12.6279 103.542 0 0 2 -0.00220468 -0.00381361 -0.00640473 22.2035 -7.03746 -16.9601 
2450 154 1 16 -0.4 1.43857 11.2135 4.8628 1.43857 11.2135 103.228 0 0 2 0.00553773 -0.00534511 -0.00229349 -16.0598 22.1069 -7.91338 
2451 154 2 12.01 0.14 1.37465 13.6417 3.99724 1.37465 13.6417 102.362 0 0 2 -0.00530633 -0.00202098 0.00568423 -10.587 -32.5901 -6.73827 
2449 154 1 16 -0.4 2.73992 13.7004 3.66961 2.73992 13.7004 102.034 0 0 2 -0.0039446 -0.0024142 -0.00306508 17.0934 2.01956 -10.739 
2453 154 2 12.01 0.11 3.06446 14.615 2.61254 3.06446 14.615 100.977 0 0 2 0.0048476 0.0039019 -0.000377718 -13.51 22.1963 10.926 
2456 154 3 1.008 0.03 0.69766 13.3724 3.14451 0.69766 13.3724 101.509 0 0 2 0.0133016 -0.0142458 0.0107892 17.4616 5.93273 12.5046 
2455 154 3 1.008 0.03 1.08321 14.6138 4.29794 1.08321 14.6138 102.663 0 0 2 -0.0227904 -0.00392378 -0.00120953 -6.94955 17.7631 7.86585 
2460 154 3 1.008 0.03 2.83718 15.6779 2.87619 2.83718 15.6779 101.241 0 0 2 0.022585 0.0233122 -0.0215012 6.04722 -19.0212 2.25556 
8400 525 3 1.008 0.03 6.75416 9.56169 1.89868 105.119 107.926 -96.466 2 2 -2 -0.0176909 0.0129014 0.0174463 55.6086 23.3585 11.7122 
5705 357 3 1.008 0.03 4.74747 15.5196 4.63329 -44.4349 15.5196 4.63329 -1 0 0 0.0211279 -0.0223659 0.0126284 28.0451 -7.35307 6.32605 
5699 357 2 12.01 0.14 6.19594 16.7756 5.50151 -42.9864 16.7756 5.50151 -1 0 0 -0.00544239 0.00385698 -0.00160072 -1.29341 54.7979 8.39756 
5712 357 3 1.008 0.03 5.76868 12.3865 6.31218 -43.4137 12.3865 6.31218 -1 0 0 -0.0115137 -0.01501 0.0122997 -2.21129 -6.11846 18.2928 
5702 357 2 12.01 0.11 5.51078 13.0846 5.5498 -43.6716 13.0846 5.5498 -1 0 0 -0.00247779 0.00685879 -0.00129167 40.8386 16.7854 -2.60758 
5698 357 1 16 -0.4 5.87453 14.4317 5.98649 -43.3078 14.4317 5.98649 -1 0 0 0.000552573 -0.00300367 -0.00661506 -4.94825 -20.345 6.71246 
5710 357 3 1.008 0.03 4.50437 12.9341 5.31342 -44.678 12.9341 5.31342 -1 0 0 -0.02083 -0.00922514 0.00389621 -30.5761 2.55508 -4.75582 
5700 357 2 12.01 0.14 5.81799 15.4287 4.99073 -43.3644 15.4287 4.99073 -1 0 0 0.00530787 -0.00152905 -0.00154372 -36.5948 -33.7681 -26.7867 
760 48 3 1.008 0.03 7.3159 13.0956 1.07858 105.681 13.0956 1.07858 2 0 0 0.0193872 -0.00931437 0.021861 11.2904 0.269622 15.3683 
5706 357 3 1.008 0.03 6.44094 15.0129 4.19498 -42.7414 15.0129 4.19498 -1 0 0 0.0148354 0.0200495 -0.00662238 -1.6835 16.2092 -3.50584 
5711 357 3 1.008 0.03 6.10566 12.6612 4.73242 -43.0767 12.6612 4.73242 -1 0 0 0.0264392 -0.0228194 -0.0200281 -0.932393 14.0095 -2.91586 
2459 154 3 1.008 0.03 2.4115 14.4397 1.76867 2.4115 14.4397 100.133 0 0 2 0.000528895 0.00205555 0.00618885 2.47827 -6.27563 -9.28014 
7611 476 3 1.008 0.03 8.59963 15.4542 5.00908 8.59963 -33.7282 5.00908 0 -1 0 -0.0199738 0.0187758 -0.0044091 31.14 -8.00182 17.3961 
754 48 1 16 -0.4 8.51212 12.1141 3.48753 106.877 12.1141 3.48753 2 0 0 -0.00330513 -0.00207288 0.00605193 5.81951 10.1046 -4.95025 
8398 525 3 1.008 0.03 5.58106 9.36713 0.641736 103.946 107.732 -97.723 2 2 -2 0.00172528 0.00145931 0.0121611 14.7119 6.07058 -4.75021 
2464 154 3 1.008 0.03 1.0073 9.68534 3.45614 1.0073 9.68534 101.821 0 0 2 -0.00248529 0.0198842 -0.0207413 4.36244 4.93421 12.5562 
7530 471 3 1.008 0.03 3.97157 8.71054 7.08821 -45.2108 8.71054 7.08821 -1 0 0 -0.0211182 0.0253541 -0.0111742 17.4672 29.2824 33.9281 
7536 471 3 1.008 0.03 2.14177 10.1932 7.38644 -47.0406 10.1932 7.38644 -1 0 0 0.0177293 -0.014941 -0.0189236 2.63443 -4.59205 3.9619 
2688 168 3 1.008 0.03 1.89244 10.566 0.608217 -47.2899 59.7483 49.7906 -1 1 1 -0.0150757 0.0105523 -0.00619652 9.81724 5.18564 30.5148 
3628 227 3 1.008 0.03 3.59665 16.0684 7.1567 101.961 16.0684 -42.0257 2 0 -1 0.00671203 0.0202022 0.0129286 3.24226 -10.5187 2.8112 
755 48 2 12.01 0.14 7.99903 13.7244 1.69525 106.364 13.7244 1.69525 2 0 0 -0.00233651 -0.00545227 -0.00565412 -9.16148 22.5036 -19.1268 
5370 336 3 1.008 0.03 7.39647 10.6015 7.29772 -90.9682 -38.5809 7.29772 -2 -1 0 -0.016963 -0.0018855 0.00153726 26.1787 -3.8396 7.01106 
753 48 1 16 -0.4 8.71645 14.5874 0.780734 107.081 14.5874 0.780734 2 0 0 -0.00625064 -0.00179669 -0.00463348 -15.4247 -4.13628 20.5552 
7612 476 3 1.008 0.03 9.78638 14.6467 6.20142 9.78638 -34.5356 6.20142 0 -1 0 0.00477298 0.00485646 -0.0189592 -9.78723 -8.81989 -6.60025 
5472 342 3 1.008 0.03 16.0382 8.73212 5.56468 16.0382 57.9145 5.56468 0 1 0 0.017555 -0.0182186 0.0148016 0.136088 7.49617 7.6289 
7725 483 3 1.008 0.03 15.4531 9.85945 0.586101 -33.7293 59.0418 -146.961 -1 1 -3 0.0235819 -0.0231789 0.00827052 2.03679 -1.32178 -13.9689 
7613 476 3 1.008 0.03 9.59558 16.2934 6.2095 9.59558 -32.8889 6.2095 0 -1 0 0.0133884 -0.0179785 -0.0149086 4.44274 16.8738 0.542585 
768 48 3 1.008 0.03 10.3135 12.1566 4.49039 108.678 12.1566 4.49039 2 0 0 -0.0143014 0.0167317 0.00340067 2.81028 -4.54739 7.0421 
7605 476 2 12.01 0.11 9.61629 15.4783 5.51729 9.61629 -33.7041 5.51729 0 -1 0 0.00118543 0.00631996 0.00272704 -58.6859 -14.9038 8.11324 
2252 141 3 1.008 0.03 14.9728 15.5394 6.50458 14.9728 15.5394 55.6869 0 0 1 0.025543 -0.0167 0.00990281 6.25508 1.26062 -19.4542 
8542 534 3 1.008 0.03 15.0684 9.67703 7.37696 64.2507 9.67703 -41.8054 1 0 -1 -0.0173976 0.00970712 -0.011078 -9.97018 9.05814 -9.14874 
5366 336 2 12.01 0.11 9.48556 8.67097 6.93797 -88.8791 -40.5114 6.93797 -2 -1 0 -0.00270279 -0.00622474 -0.00294332 -38.5934 24.2414 -49.6865 
7601 476 1 16 -0.4 10.5683 15.4955 4.54361 10.5683 -33.6868 4.54361 0 -1 0 0.00187833 -0.00465892 -0.00577691 48.0027 9.22775 1.94711 
767 48 3 1.008 0.03 9.88075 10.6075 3.72903 108.245 10.6075 3.72903 2 0 0 -0.00644799 -0.0232907 0.0252585 8.74495 0.79005 -10.5685 
756 48 2 12.01 0.14 9.08879 12.9983 2.48843 107.453 12.9983 2.48843 2 0 0 -0.0041234 0.000531517 0.00708703 17.4527 -36.1835 -1.19089 
8535 534 3 1.008 0.03 14.3978 11.2955 4.57354 63.5801 11.2955 -44.6088 1 0 -1 0.00278225 -0.0117951 0.00807978 7.21678 -6.47518 -2.87059 
8536 534 3 1.008 0.03 12.7843 11.6667 4.46237 61.9666 11.6667 -44.72 1 0 -1 -0.012071 -0.00445567 0.00237821 -17.3526 22.3931 -0.458647 
8532 534 2 12.01 0.14 13.7843 12.0452 6.4539 62.9666 12.0452 -42.7284 1 0 -1 -0.00420166 0.00417587 0.00356986 -32.0414 18.0728 -46.6053 
8540 534 3 1.008 0.03 13.6849 9.06764 3.67237 62.8672 9.06764 -45.51 1 0 -1 0.00682912 -0.0173396 -0.00817349 46.0126 -1.4214 -20.8669 
8529 534 1 16 -0.4 13.0203 9.95186 5.41391 62.2026 9.95186 -43.7684 1 0 -1 0.00609445 0.00531468 0.00371722 0.458787 -7.53724 -6.28295 
8539 534 3 1.008 0.03 12.0839 9.30474 3.50867 61.2662 9.30474 -45.6737 1 0 -1 0.0215173 0.0197994 0.0173169 0.955634 8.47048 19.3013 
8533 534 2 12.01 0.11 12.8587 9.07521 4.26553 62.0411 9.07521 -44.9168 1 0 -1 -0.00440556 0.00044045 -0.00036934 -44.1669 -0.313363 20.1898 
8531 534 2 12.01 0.14 13.489 11.2824 5.15694 62.6713 11.2824 -44.0254 1 0 -1 -0.00351048 0.00133182 0.00103334 19.3135 -33.3523 -9.07387 
8538 534 3 1.008 0.03 12.9486 11.799 7.08247 62.131 11.799 -42.0999 1 0 -1 -0.0047972 0.0252341 -0.0233026 -4.88705 11.0308 18.1005 
2245 141 2 12.01 0.11 15.8884 15.3826 5.88849 15.8884 15.3826 55.0708 0 0 1 0.00482556 -0.00539937 0.00407818 1.91244 7.26386 -12.0471 
762 48 3 1.008 0.03 9.83449 13.6646 2.89689 108.199 13.6646 2.89689 2 0 0 -0.00874351 -0.0135741 0.0265211 -8.3779 13.0916 11.7935 
7726 483 3 1.008 0.03 16.681 15.4643 1.10197 -32.5014 64.6466 -146.445 -1 1 -3 -0.00416366 -0.00436096 0.0222155 -3.89359 -8.85759 17.2538 
7602 476 1 16 -0.4 13.5474 14.4225 3.9085 13.5474 -34.7598 3.9085 0 -1 0 0.00174494 -0.00173013 -0.0014142 16.1727 -42.9571 -12.9791 
758 48 2 12.01 0.11 9.50471 11.4578 4.2757 107.869 11.4578 4.2757 2 0 0 0.00385483 -0.00588598 0.00647209 11.7242 12.3123 -37.5182 
2251 141 3 1.008 0.03 15.9981 14.2975 5.7842 15.9981 14.2975 54.9665 0 0 1 0.00316368 0.00331673 0.0105394 -1.39019 4.98726 -5.84288 
7603 476 2 12.01 0.14 11.8713 15.5219 5.18796 11.8713 -33.6605 5.18796 0 -1 0 -0.000704463 -0.00731945 0.00129897 -11.766 -4.48714 -43.948 
7608 476 3 1.008 0.03 11.9807 14.6106 5.7625 11.9807 -34.5718 5.7625 0 -1 0 -0.0223433 -0.0226647 -0.0228515 7.23439 0.0885202 9.63318 
761 48 3 1.008 0.03 9.80814 12.472 1.81079 108.173 12.472 1.81079 2 0 0 0.0112985 -0.0219709 -0.0142877 -22.7731 -3.5563 14.4135 
7604 476 2 12.01 0.14 12.9241 15.6136 4.07797 12.9241 -33.5688 4.07797 0 -1 0 0.000858139 0.0012807 0.0053836 -36.6752 42.503 -26.9535 
7615 476 3 1.008 0.03 13.2609 14.3551 1.81486 13.2609 -34.8272 1.81486 0 -1 0 -0.015676 0.00220992 -0.0009376 1.2538 -3.05225 8.78097 
7606 476 2 12.01 0.11 14.0475 14.2719 2.58227 14.0475 -34.9104 2.58227 0 -1 0 -0.0062881 0.000429391 0.00218778 -17.4831 2.31937 -6.22603 
7614 476 3 1.008 0.03 14.5015 13.2891 2.40669 14.5015 -35.8933 2.40669 0 -1 0 0.0152099 -0.0271047 -0.0121113 6.66596 8.42414 4.69327 
7609 476 3 1.008 0.03 12.4275 15.9687 3.13263 12.4275 -33.2137 3.13263 0 -1 0 0.014036 0.0261709 0.00431188 4.75168 -11.3695 19.6424 
7607 476 3 1.008 0.03 12.0344 16.4139 5.74851 12.0344 -32.7685 5.74851 0 -1 0 0.0216162 0.00165283 0.0126875 -4.69869 4.1224 17.3465 
2253 141 3 1.008 0.03 15.9295 15.8853 4.86213 15.9295 15.8853 54.0445 0 0 1 0.00438872 -0.00356794 0.0173575 -12.6135 -15.8495 32.0678 
7616 476 3 1.008 0.03 14.6797 15.1273 2.3835 14.6797 -34.0551 2.3835 0 -1 0 -0.0233728 0.0178599 -0.00493301 15.2918 -4.38277 -4.36917 
7610 476 3 1.008 0.03 13.6377 16.4128 4.20586 13.6377 -32.7695 4.20586 0 -1 0 0.0208183 -0.0215527 0.0226073 7.43897 2.46811 11.6713 
8537 534 3 1.008 0.03 13.8265 13.1053 6.13173 63.0088 13.1053 -43.0506 1 0 -1 -0.0123988 0.0153177 -0.0230816 -9.77137 -10.1211 13.1556 
7723 483 3 1.008 0.03 15.2713 11.2624 1.54533 -33.9111 60.4448 -146.002 -1 1 -3 0.0126659 -0.0203011 -0.0255327 9.9854 8.54548 -6.32612 
8530 534 1 16 -0.4 15.0356 11.8121 6.95386 64.2179 11.8121 -42.2285 1 0 -1 0.00652527 -0.00492847 -0.00602731 22.3894 -26.5274 27.2152 
7717 483 2 12.01 0.11 14.9734 10.8358 0.588744 -34.2089 60.0181 -146.958 -1 1 -3 -0.000566486 0.00343354 -0.00526208 10.7933 3.61117 28.4575 
766 48 3 1.008 0.03 9.19458 10.9651 5.13421 107.559 10.9651 5.13421 2 0 0 -0.0185465 -0.00372952 0.0115984 -20.8971 -1.71058 28.0866 
7724 483 3 1.008 0.03 13.9496 10.7034 0.811301 -35.2328 59.8857 -146.736 -1 1 -3 -0.00813378 -0.00969444 -0.0244892 -22.5757 -6.92749 -4.63621 
5362 336 1 16 -0.4 9.39949 10.0648 7.27599 -88.9652 -39.1175 7.27599 -2 -1 0 0.0019727 0.00341483 0.00193043 21.635 -17.3314 -12.9421 
7721 483 3 1.008 0.03 16.8103 12.9919 0.894604 -32.372 62.1743 -146.652 -1 1 -3 0.0199835 -0.0139712 0.019132 -2.00222 6.55634 1.2668 
5465 342 3 1.008 0.03 18.8311 8.60691 4.9188 18.8311 57.7893 4.9188 0 1 0 0.00766535 -0.000636964 0.0102229 -9.69091 4.45399 -4.47283 
7799 488 3 1.008 0.03 24.9339 16.3637 1.27053 74.1163 16.3637 1.27053 1 0 0 0.0197199 -0.0010708 -0.018498 -11.1886 7.92949 -0.401516 
4519 283 3 1.008 0.03 24.9927 12.5575 4.04173 -73.372 61.7398 102.406 -2 1 2 0.015642 0.0255202 0.0160629 20.0302 13.2781 4.46813 
4523 283 3 1.008 0.03 24.8615 13.1131 1.35817 -73.5031 62.2955 99.7229 -2 1 2 0.0201181 0.0261577 -0.00162439 -16.6364 -8.78344 -7.09173 
7934 496 3 1.008 0.03 20.6342 12.5358 6.55456 20.6342 12.5358 55.7369 0 0 1 -0.0232872 -0.00663267 -0.00132757 -8.81029 6.62603 -8.48722 
5460 342 2 12.01 0.14 18.1613 9.12271 4.20421 18.1613 58.3051 4.20421 0 1 0 -0.00497146 0.00477694 -0.00653089 -25.7303 16.3571 10.5403 
5466 342 3 1.008 0.03 17.787 10.1017 4.63412 17.787 59.284 4.63412 0 1 0 0.017753 0.00384639 0.0236131 7.60647 -30.2083 0.984092 
2241 141 1 16 -0.4 16.9913 15.8543 6.63063 16.9913 15.8543 55.813 0 0 1 -0.000104699 -0.00320235 0.00090292 3.23025 3.93201 9.96937 
5463 342 3 1.008 0.03 19.5733 10.4824 3.30239 19.5733 59.6647 3.30239 0 1 0 -0.022462 -0.0130542 -0.0146056 -0.157695 -8.35473 -3.72709 
5459 342 2 12.01 0.14 18.9503 9.62718 3.0048 18.9503 58.8095 3.0048 0 1 0 -0.00431173 0.00707462 -0.00111458 -35.2108 -4.43664 -38.0266 
5464 342 3 1.008 0.03 18.1942 9.92724 2.20269 18.1942 59.1096 2.20269 0 1 0 0.0131544 0.00466195 0.0180555 24.2422 1.73036 27.0538 
7926 496 2 12.01 0.11 21.5539 12.9624 6.92013 21.5539 12.9624 56.1025 0 0 1 -0.00469216 0.00411941 -0.0031825 8.14301 -18.6448 23.4515 
10131 636 8 19 -0.16 17.9686 16.1881 3.4745 17.9686 16.1881 52.6569 0 0 1 0.00562263 0.00150846 -0.00276506 7.02456 -16.0172 -2.86025 