ITEM: TIMESTEP
1400000
ITEM: NUMBER OF ATOMS
10479
ITEM: BOX BOUNDS pp pp pp
4.0882558190751794e-01 4.9591174418091420e+01
4.0882558190751794e-01 4.9591174418091420e+01
4.0882558190751794e-01 4.9591174418091420e+01
ITEM: ATOMS id mol type mass q x y z xu yu zu ix iy iz vx vy vz fx fy fz 
7377 462 1 16 -0.4 3.29281 7.80866 2.76414 52.4752 106.173 101.129 1 2 2 -5.57759e-05 0.00203944 -0.00209273 -15.0989 14.2639 -5.89942 
2161 136 1 16 -0.4 4.45857 1.44683 2.84224 102.823 1.44683 2.84224 2 0 0 -0.00176779 -8.0629e-06 0.00249653 11.0755 23.7407 -9.91017 
7386 462 3 1.008 0.03 5.69897 7.70661 2.13106 54.8813 106.071 100.496 1 2 2 -0.000205853 0.0158232 -0.0331946 -3.2499 -11.7902 12.1745 
7380 462 2 12.01 0.14 5.51218 6.94365 2.92462 54.6945 105.308 101.289 1 2 2 0.00618731 0.00105011 0.000401448 15.3234 -7.55258 -3.58141 
7389 462 3 1.008 0.03 1.90648 7.90507 4.24766 51.0888 106.27 102.612 1 2 2 0.00380914 -0.0179452 -0.00280338 -2.25954 -2.63803 21.0679 
7381 462 2 12.01 0.11 1.92203 7.87087 3.18892 51.1044 106.236 101.554 1 2 2 -0.00413955 -0.00900446 -0.00216026 5.87902 -8.87048 -13.4662 
7379 462 2 12.01 0.14 3.99541 6.6329 3.09284 53.1778 104.998 101.458 1 2 2 -0.00294739 -0.00569202 -0.000982072 -0.966508 -21.4581 -7.38295 
7378 462 1 16 -0.4 6.04113 7.34776 4.1896 55.2235 105.712 102.554 1 2 2 0.00147668 -0.000396329 0.00241954 -22.025 1.07223 -7.66546 
7383 462 3 1.008 0.03 3.80918 6.2984 4.10938 52.9915 104.663 102.474 1 2 2 -0.0066171 0.014281 0.000703558 -1.30302 3.915 4.7469 
7384 462 3 1.008 0.03 3.60418 5.78437 2.47272 52.7865 104.149 100.837 1 2 2 -0.0119339 -0.0172097 0.0189951 13.7493 18.3728 4.70183 
7385 462 3 1.008 0.03 6.12456 6.04598 2.68169 55.3069 104.411 101.046 1 2 2 -0.00862713 0.0199592 0.000971804 -17.843 7.43179 -3.85703 
2818 177 1 16 -0.4 1.65025 5.73128 5.9633 -47.5321 54.9136 55.1456 -1 1 1 0.000826273 -0.00398944 0.000111 9.35381 19.5524 37.8103 
2822 177 2 12.01 0.11 2.02123 4.37887 5.79207 -47.1611 53.5612 54.9744 -1 1 1 0.00547996 -0.00113231 -0.000476196 11.0154 24.6717 -41.2664 
2832 177 3 1.008 0.03 1.9252 4.35396 4.68758 -47.2571 53.5363 53.8699 -1 1 1 0.00601135 -0.0236308 0.0103598 -1.52765 -14.2717 13.8497 
2171 136 3 1.008 0.03 3.73738 3.46668 3.15325 102.102 3.46668 3.15325 2 0 0 -0.003881 0.00986573 0.0200565 5.71912 3.00144 -4.92022 
2173 136 3 1.008 0.03 3.33735 2.34043 4.40252 101.702 2.34043 4.40252 2 0 0 -0.00043501 0.0230666 -0.0059854 1.01028 -7.81129 -7.48674 
2750 172 3 1.008 0.03 6.12811 3.20161 4.67932 6.12811 3.20161 53.8617 0 0 1 0.0102852 -0.0400532 -0.0472023 1.76139 -3.85566 2.96411 
2742 172 2 12.01 0.11 6.34271 3.60677 5.66337 6.34271 3.60677 54.8457 0 0 1 -0.00184042 -0.00142833 0.00479043 8.22373 22.838 7.0556 
7391 462 3 1.008 0.03 7.69986 7.79795 5.20417 56.8822 106.163 103.569 1 2 2 -0.0265013 -0.0243926 0.0115845 3.86998 5.54572 -3.22402 
2165 136 2 12.01 0.11 3.5179 2.41903 3.32085 101.883 2.41903 3.32085 2 0 0 -0.00725839 -0.000539171 0.000385693 7.95015 -13.5337 12.3735 
7382 462 2 12.01 0.11 7.4242 7.51813 4.18688 56.6065 105.883 102.552 1 2 2 0.0082076 -0.000647542 0.000786456 28.0302 3.08707 -15.4972 
7390 462 3 1.008 0.03 7.76044 8.29049 3.43234 56.9428 106.655 101.797 1 2 2 -0.00963616 -0.0268451 0.00394598 -7.65447 -15.9736 20.7815 
7392 462 3 1.008 0.03 7.95845 6.56552 3.98261 57.1408 104.93 102.347 1 2 2 0.000508091 0.0205376 0.00526781 -7.67933 11.5792 0.625793 
2172 136 3 1.008 0.03 2.62887 2.18851 2.78875 100.994 2.18851 2.78875 2 0 0 0.0268138 -0.0137522 0.004181 -20.3771 1.1313 -4.94271 
2830 177 3 1.008 0.03 3.07311 4.21196 5.97751 -46.1092 53.3943 55.1599 -1 1 1 0.018265 -0.0296224 -0.000679126 4.88565 -0.970195 6.93821 
2820 177 2 12.01 0.14 1.81015 6.2093 7.34378 -47.3722 55.3917 56.5261 -1 1 1 -0.00784533 -0.00324061 0.00485381 -64.7294 -19.2491 -35.0026 
2738 172 1 16 -0.4 6.52595 2.6596 6.69027 6.52595 2.6596 55.8726 0 0 1 0.00233865 -0.00334489 0.00312253 -0.757702 -11.6626 8.13248 
7388 462 3 1.008 0.03 1.30039 7.03505 2.84903 50.4827 105.4 101.214 1 2 2 -0.0023902 -0.0191768 -0.00530411 7.55533 -0.770116 1.69559 
2823 177 3 1.008 0.03 1.82628 8.30874 6.74231 -47.3561 57.4911 55.9247 -1 1 1 -0.00284432 0.0178153 -0.0155316 8.07298 11.7001 -20.7875 
2740 172 2 12.01 0.14 7.85576 2.19665 6.92822 7.85576 2.19665 56.1106 0 0 1 -0.003786 -0.00649279 -0.00325799 -27.5076 18.1027 -12.9646 
2739 172 2 12.01 0.14 8.42621 1.5971 5.66734 8.42621 1.5971 54.8497 0 0 1 0.00379277 -0.00431744 -0.00414355 24.6073 -17.7892 17.9712 
2743 172 3 1.008 0.03 7.64954 1.18851 5.07182 7.64954 1.18851 54.2542 0 0 1 -0.0118535 -0.0383773 0.0185136 -15.4314 -4.45617 -14.7165 
2749 172 3 1.008 0.03 7.9412 2.76406 3.33338 7.9412 2.76406 52.5157 0 0 1 -0.00145878 -0.0150161 -0.00146193 -1.31213 -5.39458 1.61254 
2751 172 3 1.008 0.03 5.50856 4.21018 5.97835 5.50856 4.21018 55.1607 0 0 1 0.0060117 0.0160768 0.0142669 -11.53 1.24831 -2.928 
2752 172 3 1.008 0.03 7.14415 4.35671 5.61586 7.14415 4.35671 54.7982 0 0 1 0.00850366 -0.00521498 0.0139572 0.879905 -8.6382 -2.23587 
2168 136 3 1.008 0.03 6.32533 1.38915 1.9267 104.69 1.38915 1.9267 2 0 0 -0.00079215 0.0234733 0.0180785 -3.08915 1.89667 0.896204 
2163 136 2 12.01 0.14 5.47459 2.07249 2.02138 103.839 2.07249 2.02138 2 0 0 0.000271345 0.0065537 0.00316266 13.3243 -19.0182 47.6379 
2170 136 3 1.008 0.03 4.1821 3.14778 0.800441 102.547 3.14778 0.800441 2 0 0 -0.00765357 -0.0143726 0.0311009 -1.96248 21.3772 3.73707 
2164 136 2 12.01 0.14 5.05726 2.54235 0.698105 103.422 2.54235 0.698105 2 0 0 -0.00269261 0.00946777 0.00245515 -9.45438 15.7999 -64.0893 
2746 172 3 1.008 0.03 8.43041 3.03882 7.2272 8.43041 3.03882 56.4095 0 0 1 0.0164399 -0.00839678 0.0249344 12.8775 12.0015 8.20152 
2167 136 3 1.008 0.03 5.80029 2.93435 2.59374 104.165 2.93435 2.59374 2 0 0 -0.0224249 0.0132937 -0.00413837 9.67541 1.53247 -4.71631 
2831 177 3 1.008 0.03 1.42623 3.61606 6.24146 -47.7561 52.7984 55.4238 -1 1 1 0.0116356 0.00627253 0.0185988 -13.5455 -6.76878 9.38833 
2737 172 1 16 -0.4 9.18029 2.63055 5.08133 9.18029 2.63055 54.2637 0 0 1 -0.00499922 -0.000546689 -0.00933322 -5.71122 -1.25334 -50.9678 
5063 317 3 1.008 0.03 16.3751 0.494098 2.97773 16.3751 98.8588 2.97773 0 2 0 0.00594351 0.00983659 -0.00769089 -5.74217 5.44908 -16.5158 
2741 172 2 12.01 0.11 8.9836 2.66311 3.62062 8.9836 2.66311 52.803 0 0 1 -0.000712241 0.00150054 -0.000984573 32.1573 15.4836 11.0808 
2744 172 3 1.008 0.03 9.06926 0.733294 5.9024 9.06926 0.733294 55.0847 0 0 1 -0.0306147 -0.0132385 0.0085837 -0.715287 9.60946 -1.01715 
722 46 1 16 -0.4 11.3365 0.525211 1.94822 11.3365 -147.022 1.94822 0 -3 0 0.00067426 7.69969e-05 -0.000154483 -22.0027 -4.05617 4.92421 
721 46 1 16 -0.4 12.5194 3.39723 2.78896 12.5194 -144.15 2.78896 0 -3 0 0.00258487 -0.0015628 0.00525359 -13.0364 25.8696 -44.7203 
723 46 2 12.01 0.14 12.5023 2.20289 3.3833 12.5023 -145.344 3.3833 0 -3 0 -0.00453559 0.00714571 -0.00647922 -3.04727 -66.9356 33.1456 
5065 317 3 1.008 0.03 15.4412 2.65236 1.8708 15.4412 101.017 1.8708 0 2 0 0.0217412 -0.0210021 0.0131581 11.5102 3.92605 19.5254 
724 46 2 12.01 0.14 12.5748 0.951339 2.4055 12.5748 -146.596 2.4055 0 -3 0 -0.00113051 -0.00242 -0.00422892 48.8801 9.02869 37.6681 
729 46 3 1.008 0.03 13.2763 1.18468 1.56526 13.2763 -146.362 1.56526 0 -3 0 0.0211788 -0.0152279 -0.00310371 -13.663 -8.7995 15.7488 
728 46 3 1.008 0.03 11.7248 2.15395 4.17621 11.7248 -145.393 4.17621 0 -3 0 -0.00518985 -0.00755112 -0.0291862 5.85115 -2.67569 -15.5106 
727 46 3 1.008 0.03 13.4158 2.12189 3.95094 13.4158 -145.425 3.95094 0 -3 0 -0.0260657 -0.00585551 -0.0245441 8.27265 0.370615 4.27499 
725 46 2 12.01 0.11 13.0556 4.46125 3.50865 13.0556 -143.086 3.50865 0 -3 0 -0.0100009 -0.00887614 0.00251146 -38.1216 3.82029 -14.8058 
731 46 3 1.008 0.03 12.6181 4.64192 4.46816 12.6181 -142.905 4.46816 0 -3 0 0.00955666 -0.0341529 0.00607501 -2.35609 -5.89326 16.0782 
5060 317 2 12.01 0.14 16.5192 2.43658 2.02628 16.5192 100.801 2.02628 0 2 0 -0.00684547 -0.000856668 0.00404218 -26.8464 3.77377 -1.15657 
732 46 3 1.008 0.03 14.0996 4.33809 3.53759 14.0996 -143.209 3.53759 0 -3 0 -0.014716 0.00589596 -0.0201305 28.0548 9.31574 1.72948 
2747 172 3 1.008 0.03 9.45268 3.60958 3.22395 9.45268 3.60958 52.4063 0 0 1 -0.0242472 -0.00893076 -0.00710451 -6.30715 -23.9692 9.15691 
2748 172 3 1.008 0.03 9.45847 1.7932 3.08887 9.45847 1.7932 52.2712 0 0 1 0.0130031 -0.0148188 -0.00505704 -12.5273 16.7119 13.1844 
9650 604 8 19 -0.16 12.8084 8.49201 3.13623 12.8084 57.6744 3.13623 0 1 0 -0.00818531 0.00305627 -0.00196739 -19.2289 10.5722 -9.56379 
5059 317 2 12.01 0.14 16.601 0.919244 1.97498 16.601 99.2839 1.97498 0 2 0 -0.00210836 0.000722763 0.000853196 5.98583 -29.0428 15.8293 
10109 635 8 19 -0.16 15.087 7.3494 1.01171 113.452 56.5317 1.01171 2 1 0 -0.00105714 0.00619009 -0.000409324 13.154 7.48315 0.153128 
733 46 3 1.008 0.03 12.6548 5.2652 2.89183 12.6548 -142.282 2.89183 0 -3 0 0.0195156 -0.00969583 -0.00748073 18.2718 9.94343 2.34885 
5133 321 3 1.008 0.03 14.1263 2.45244 6.28142 14.1263 51.6348 6.28142 0 1 0 0.0246895 0.0272212 -0.0094304 -12.9162 1.31295 0.544573 
5121 321 1 16 -0.4 15.8685 1.83604 6.94488 15.8685 51.0184 6.94488 0 1 0 0.00150655 0.00531567 -0.00232451 -6.74569 -36.3293 -2.02802 
9649 604 8 19 -0.16 14.3549 8.05368 4.44691 14.3549 57.236 4.44691 0 1 0 -0.00238635 -0.00981013 0.0023548 4.93617 7.98545 -20.4459 
783 49 3 1.008 0.03 9.94051 8.2873 1.8545 108.305 106.652 51.0369 2 2 1 -0.0195755 0.00682478 -0.0134975 -8.61077 -2.45346 -4.49428 
9642 604 8 19 -0.16 11.5969 8.09087 5.74865 11.5969 57.2732 5.74865 0 1 0 -0.00549898 -0.000430333 -0.00179726 17.1824 -16.5095 -3.99216 
5125 321 2 12.01 0.11 14.9514 2.86405 6.83706 14.9514 52.0464 6.83706 0 1 0 -0.00420379 -0.000963392 0.00683311 -6.08501 -1.65388 0.180513 
172 11 3 1.008 0.03 16.3261 5.64338 5.6355 114.691 54.8257 104 2 1 2 -0.00499745 0.0105506 0.0240818 14.4893 7.39874 -6.35771 
5072 317 3 1.008 0.03 16.0386 4.7179 0.914146 16.0386 103.083 0.914146 0 2 0 -0.012126 -0.00454577 -0.00289594 -1.88017 -0.913751 -6.0953 
10107 635 8 19 -0.16 13.2197 6.37039 1.00329 111.584 55.5527 1.00329 2 1 0 0.00271689 -0.00625668 0.00138598 10.1784 13.7391 -13.025 
10108 635 8 19 -0.16 13.2891 8.41792 0.801872 111.654 57.6003 0.801872 2 1 0 0.00152147 0.0032518 0.00710067 -18.1132 58.6665 21.5871 
5132 321 3 1.008 0.03 15.4136 3.59139 6.22379 15.4136 52.7737 6.22379 0 1 0 -0.00914477 0.00386869 -0.0122078 -2.6239 23.0291 -12.6358 
3275 205 3 1.008 0.03 11.8865 6.09889 7.35136 -37.2958 6.09889 56.5337 -1 0 1 0.00830399 -0.00438341 -0.00700021 -16.7197 -6.58594 -16.8359 
10106 635 7 12.01 0.35 13.9047 7.38819 0.446974 112.269 56.5705 0.446974 2 1 0 0.00600455 -0.00664428 -0.00256034 0.994824 -88.4584 -26.7356 
5566 348 3 1.008 0.03 24.3588 1.07961 6.86461 -24.8235 50.262 6.86461 -1 1 0 -0.00362777 0.009686 -0.0227316 -20.5519 -14.3576 24.6205 
6825 427 3 1.008 0.03 24.6834 0.439168 1.15602 -24.499 49.6215 1.15602 -1 1 0 -0.00803602 0.0135733 0.037552 -7.58439 9.18486 -0.595262 
5568 348 3 1.008 0.03 24.4472 0.824489 5.13847 -24.7351 50.0068 5.13847 -1 1 0 0.0153779 -0.0195834 -0.00354393 9.23288 -21.2338 -1.43991 
9148 572 3 1.008 0.03 21.4789 4.10401 1.39823 119.844 53.2864 50.5806 2 1 1 0.0200748 0.0127821 -0.000229838 -11.1443 1.91961 2.22278 
2778 174 3 1.008 0.03 21.6571 8.45898 2.79804 120.022 -89.9057 2.79804 2 -2 0 0.00638345 0.00844343 0.00671182 -8.48513 11.0041 -24.4778 
9161 573 3 1.008 0.03 24.0004 7.1709 1.23385 24.0004 7.1709 1.23385 0 0 0 0.0399425 0.00199888 0.00605676 17.1813 -21.8963 -7.602 
5122 321 1 16 -0.4 19.0541 1.06783 6.1809 19.0541 50.2502 6.1809 0 1 0 0.00317302 -0.000874585 0.000621387 -39.2749 -8.94542 52.7988 
174 11 3 1.008 0.03 20.0397 3.18782 3.94094 118.404 52.3702 102.306 2 1 2 0.00289662 -0.0137039 -0.0171796 8.89331 5.70906 20.0753 
6818 427 1 16 -0.4 24.7615 1.72239 2.90881 -24.4209 50.9047 2.90881 -1 1 0 -0.000773758 0.00609068 0.000703306 7.10293 -13.5556 -22.6891 
5066 317 3 1.008 0.03 16.9464 2.87313 2.99927 16.9464 101.238 2.99927 0 2 0 -0.0121728 0.00781514 -0.0229374 -12.9962 -10.2979 -35.8463 
5124 321 2 12.01 0.14 18.1743 1.15255 7.39816 18.1743 50.3349 7.39816 0 1 0 -0.00145442 0.00292794 0.00306292 14.0947 -4.72305 -78.865 
6830 427 3 1.008 0.03 23.2895 3.10749 3.34759 -25.8929 52.2898 3.34759 -1 1 0 0.0060439 -0.00621474 -0.00541755 5.92652 -2.96023 -5.20611 
176 11 3 1.008 0.03 20.0608 3.47143 5.73033 118.426 52.6538 104.095 2 1 2 -0.0193857 0.00582581 0.00867255 -20.9472 -3.50082 20.2058 
166 11 2 12.01 0.11 20.6473 3.39439 4.8639 119.012 52.5767 103.229 2 1 2 0.00406472 0.00139261 -0.00511489 28.1933 -24.539 -33.4014 
164 11 2 12.01 0.14 20.6977 5.63326 4.34142 119.062 54.8156 102.706 2 1 2 -0.00369959 -0.000779865 0.00602819 -5.42753 -3.94126 -50.6686 
165 11 2 12.01 0.11 17.2445 6.26912 5.57274 115.609 55.4515 103.937 2 1 2 -0.00410473 -0.0010677 -0.00255242 -34.0429 -6.11751 46.9213 
163 11 2 12.01 0.14 19.5595 6.13123 5.20763 117.924 55.3136 103.572 2 1 2 -0.000948425 -0.000391784 0.00222956 -4.38597 4.02619 28.5122 
161 11 1 16 -0.4 18.2978 5.51918 5.04685 116.663 54.7015 103.412 2 1 2 0.0120016 0.00904768 0.0020058 11.1418 -17.2812 -20.8191 
168 11 3 1.008 0.03 19.8344 6.00925 6.25366 118.199 55.1916 104.618 2 1 2 0.00823833 0.00364731 0.0210621 2.51744 4.60828 1.8359 
167 11 3 1.008 0.03 19.4211 7.18108 5.0285 117.786 56.3634 103.393 2 1 2 0.0164331 0.0150674 0.00163865 2.94044 12.6583 -2.83207 
5558 348 2 12.01 0.11 24.7439 1.43814 5.96532 -24.4385 50.6205 5.96532 -1 1 0 0.00435237 0.00206665 -0.00548806 -4.30268 57.4305 -13.3482 
171 11 3 1.008 0.03 16.9577 7.1594 5.04329 115.322 56.3417 103.408 2 1 2 0.00122096 -0.00708511 -0.00110221 4.93526 8.07948 -11.4837 
170 11 3 1.008 0.03 21.387 6.44085 4.11926 119.752 55.6232 102.484 2 1 2 -0.0019813 0.00500454 -0.00170156 2.63141 3.68816 4.10229 
169 11 3 1.008 0.03 20.3278 5.30793 3.34561 118.692 54.4903 101.71 2 1 2 0.0119269 0.00137419 0.00513759 -0.440141 13.2852 11.2566 
162 11 1 16 -0.4 21.4519 4.5536 4.7882 119.817 53.7359 103.153 2 1 2 2.34947e-05 -0.000323325 0.00213362 -3.4471 -10.3391 5.08783 
4823 302 3 1.008 0.03 22.4501 3.12127 7.0347 169.997 -46.0611 -42.1477 3 -1 -1 0.0127295 0.0102625 -0.018481 -14.3179 -18.2747 -11.7158 
6832 427 3 1.008 0.03 22.6902 1.51781 3.20529 -26.4921 50.7002 3.20529 -1 1 0 0.00260119 0.00315167 -0.0303622 0.316557 -7.49996 -4.03651 
2770 174 1 16 -0.4 21.7188 8.54683 0.601245 120.083 -89.8179 0.601245 2 -2 0 0.00319415 0.008846 -0.00188957 -25.0822 -3.04272 20.707 
175 11 3 1.008 0.03 21.3466 2.53375 4.97634 119.711 51.7161 103.341 2 1 2 -0.0204958 -0.00141772 0.00796159 -13.8589 11.0834 1.66504 
6822 427 2 12.01 0.11 23.4308 2.18351 2.76969 -25.7516 51.3659 2.76969 -1 1 0 -0.00950056 -0.0105982 -0.000669848 -8.60521 20.8107 3.08344 
5567 348 3 1.008 0.03 24.1709 2.35973 5.63636 -25.0114 51.5421 5.63636 -1 1 0 0.00618462 -0.00452527 0.0231029 21.9927 -18.6521 20.5964 
6831 427 3 1.008 0.03 23.1786 2.42398 1.7248 -26.0038 51.6063 1.7248 -1 1 0 -0.00431697 0.0187322 -0.0386092 1.44252 -5.35426 6.24933 
9162 573 3 1.008 0.03 24.8719 5.91168 2.11644 24.8719 5.91168 2.11644 0 0 0 -0.00155241 -0.00191349 0.00559568 2.07332 -4.32622 -0.182806 
9156 573 2 12.01 0.14 24.9056 6.49516 1.19925 24.9056 6.49516 1.19925 0 0 0 -0.0034734 0.00445345 -0.00164653 0.215499 56.9227 -15.6556 
6820 427 2 12.01 0.14 24.9252 0.465017 2.21479 -24.2571 49.6474 2.21479 -1 1 0 0.00217766 -0.000299222 0.00125464 -16.0031 1.56629 30.0542 
5064 317 3 1.008 0.03 17.6159 0.636941 1.82569 17.6159 99.0016 1.82569 0 2 0 -0.000933657 -0.0130036 -0.0156938 23.2129 7.76967 5.71065 
4818 302 1 16 -0.4 24.2106 4.73062 6.12187 171.758 -44.4517 -43.0605 3 -1 -1 -0.00494612 -4.07469e-05 -0.000883587 13.9176 -19.2962 -12.6003 
9149 572 3 1.008 0.03 19.798 4.64422 0.910935 118.163 53.8266 50.0933 2 1 1 -0.0150058 0.0300595 0.0245858 22.4311 -14.6559 -5.79409 
2782 174 3 1.008 0.03 19.6819 8.16818 0.832264 118.047 -90.1965 0.832264 2 -2 0 0.0353485 -0.0067664 -0.0171819 -26.6564 21.9019 -2.22187 
5058 317 1 16 -0.4 17.0581 2.8816 0.802285 17.0581 101.246 0.802285 0 2 0 0.00162569 -0.00400727 -0.00276736 13.7934 25.426 -8.83306 
4822 302 2 12.01 0.11 24.7459 5.8308 5.44594 172.293 -43.3516 -43.7364 3 -1 -1 0.00304949 0.00413515 -0.00330831 11.7211 47.3135 0.261545 
5070 317 3 1.008 0.03 17.661 4.72808 1.43195 17.661 103.093 1.43195 0 2 0 0.00501674 0.00495098 0.00818421 9.94574 7.98762 5.26522 
2784 174 3 1.008 0.03 20.592 6.85258 1.22076 118.957 -91.5121 1.22076 2 -2 0 0.00465565 0.00862109 -0.02822 7.48072 15.2279 -27.937 
5127 321 3 1.008 0.03 17.4521 2.92458 6.25546 17.4521 52.1069 6.25546 0 1 0 0.00887544 -0.000856228 0.00146486 5.7268 -7.69628 10.0882 
173 11 3 1.008 0.03 17.4134 6.56186 6.63923 115.778 55.7442 105.004 2 1 2 -0.00741257 0.0152602 9.07767e-05 2.8757 -4.72433 -18.9277 
4825 302 3 1.008 0.03 22.4855 5.68493 6.71894 170.033 -43.4974 -42.4634 3 -1 -1 0.00666807 0.00787622 -0.0213917 15.0674 -10.3398 3.07167 
4820 302 2 12.01 0.14 23.3193 5.06261 7.12367 170.866 -44.1197 -42.0587 3 -1 -1 -0.0143101 -0.00137118 0.00432416 -59.5735 -0.797127 41.4363 
4830 302 3 1.008 0.03 24.0325 6.41747 4.79193 171.58 -42.7649 -44.3904 3 -1 -1 -0.00619737 -0.0107953 0.00292993 15.1037 -23.6602 10.6506 
5123 321 2 12.01 0.14 17.1729 2.26101 7.09786 17.1729 51.4434 7.09786 0 1 0 -0.00297299 0.00153428 -0.00146756 13.0665 36.6083 28.1161 
9141 572 2 12.01 0.11 20.6197 3.89247 0.744844 118.984 53.0748 49.9272 2 1 1 0.00303048 0.00346018 0.000250092 2.7941 22.6938 -16.9775 
9147 572 3 1.008 0.03 20.2552 2.91583 1.0197 118.62 52.0982 50.202 2 1 1 -0.0245112 -0.0312011 -0.00466581 -3.8356 -8.56327 -1.64796 
5062 317 2 12.01 0.11 17.0256 4.32001 0.672382 17.0256 102.685 0.672382 0 2 0 -0.00177069 -0.000707296 0.000395619 -10.9292 -18.4405 6.40904 
2774 174 2 12.01 0.11 20.5523 7.71026 0.481596 118.917 -90.6544 0.481596 2 -2 0 -0.00275516 -0.000473375 -0.00198649 33.1455 -32.6338 -3.05071 
7387 462 3 1.008 0.03 1.40661 8.77108 2.86786 50.589 107.136 101.233 1 2 2 0.00185522 -0.0120532 -0.0525594 4.60426 4.57167 -4.53452 
9040 565 3 1.008 0.03 0.861797 11.7905 1.21277 0.861797 -86.5742 99.5775 0 -2 2 0.0189016 0.000992122 0.0152383 2.88177 -5.3789 -0.749595 
877 55 3 1.008 0.03 0.55673 14.3298 6.3598 -48.6256 -34.8525 6.3598 -1 -1 0 0.0209861 -0.018106 0.00142992 -4.446 2.96687 8.42329 
9086 568 3 1.008 0.03 3.46269 15.6766 0.976913 52.645 114.041 99.3416 1 2 2 2.56888e-05 -0.01004 -5.16752e-06 -20.3706 -0.306416 9.17594 
9084 568 3 1.008 0.03 4.96799 11.2153 1.96796 54.1503 109.58 100.333 1 2 2 0.0189499 -0.00913345 0.0126571 -4.11203 0.975336 21.702 
9082 568 3 1.008 0.03 3.64836 14.7854 3.19245 52.8307 113.15 101.557 1 2 2 0.0212375 -0.00276398 -0.0363271 19.7596 6.33688 20.5391 
9085 568 3 1.008 0.03 6.30908 11.3203 2.96333 55.4914 109.685 101.328 1 2 2 0.00672275 -0.0141334 -0.0128634 32.7655 -0.647534 7.18478 
9075 568 2 12.01 0.14 3.40457 12.6295 3.65474 52.5869 110.994 102.019 1 2 2 -0.00453442 -0.00563896 0.00376427 31.3177 2.34743 22.2837 
3790 237 3 1.008 0.03 7.07418 14.3796 2.15268 7.07418 63.5619 2.15268 0 1 0 0.001177 0.00761072 0.0110913 3.66644 -7.4591 -8.2096 
9073 568 1 16 -0.4 4.8151 12.4804 3.65366 53.9974 110.845 102.018 1 2 2 -0.00167731 0.00526372 -0.00636279 -1.61415 23.0016 4.23786 
9077 568 2 12.01 0.11 5.26911 11.3137 3.04257 54.4515 109.678 101.407 1 2 2 0.00475545 -0.00207981 0.00687263 -22.2616 -7.33427 -30.8347 
9079 568 3 1.008 0.03 3.00838 11.9336 3.00281 52.1907 110.298 101.368 1 2 2 -0.0236767 0.0154711 -0.0284941 -23.5207 -32.6488 -15.7532 
9083 568 3 1.008 0.03 4.94563 10.4793 3.6407 54.128 108.844 102.005 1 2 2 0.00769346 0.0154724 -0.022503 -0.960388 -12.9054 0.00546328 
9074 568 1 16 -0.4 2.81019 13.8251 1.6859 51.9925 112.19 100.051 1 2 2 0.0051982 0.00222317 0.00297875 -3.98534 5.85849 3.60637 
9076 568 2 12.01 0.14 3.00114 13.9538 3.08775 52.1835 112.319 101.452 1 2 2 0.000799638 -0.000229355 0.00775889 -25.1596 7.64237 -12.2308 
9081 568 3 1.008 0.03 2.08092 14.2473 3.59432 51.2633 112.612 101.959 1 2 2 -0.00233538 -0.0317988 -0.0018378 -3.24975 0.459487 -4.86818 
9080 568 3 1.008 0.03 3.04378 12.443 4.67257 52.2261 110.808 103.037 1 2 2 -0.0133824 -0.0271299 -0.0044459 -2.40768 2.56806 -4.34398 
3782 237 2 12.01 0.11 6.32891 14.955 2.66982 6.32891 64.1374 2.66982 0 1 0 -0.00169846 0.000351751 0.000490141 5.60798 34.6668 -1.52148 
9867 619 8 19 -0.16 2.78068 16.4094 5.1701 2.78068 65.5918 5.1701 0 1 0 7.6993e-07 -0.00243471 -0.00494231 6.46157 7.59041 -2.67301 
3660 229 3 1.008 0.03 5.56153 15.4058 6.86516 5.56153 64.5882 6.86516 0 1 0 0.00813259 -0.00253425 -0.00296094 8.0132 -2.49071 3.84754 
3791 237 3 1.008 0.03 6.05641 14.4595 3.55763 6.05641 63.6418 3.55763 0 1 0 0.0125105 0.0196913 -0.00365459 -9.31671 -13.2471 13.7444 
3792 237 3 1.008 0.03 5.43651 15.1372 2.07507 5.43651 64.3195 2.07507 0 1 0 -0.0241878 0.00623216 0.00760687 3.03753 -5.61278 -5.82814 
3661 229 3 1.008 0.03 5.8738 13.7094 6.43021 5.8738 62.8917 6.43021 0 1 0 -0.00131701 -0.0174732 -0.0145983 14.9855 32.6591 -6.53844 
3653 229 2 12.01 0.11 6.37916 14.6925 6.6854 6.37916 63.8749 6.6854 0 1 0 -0.00346607 -0.00996453 -0.00356371 -13.1391 -51.8435 69.2657 
3655 229 3 1.008 0.03 8.37363 13.3949 6.25571 8.37363 62.5772 6.25571 0 1 0 0.00679892 0.000958112 -0.0134403 -5.39756 0.00166706 -8.15117 
3649 229 1 16 -0.4 7.27864 15.172 5.74347 7.27864 64.3543 5.74347 0 1 0 -0.0109011 -0.00273285 -0.00115632 20.1567 -14.7156 -18.0427 
3656 229 3 1.008 0.03 7.69735 13.5745 4.59285 7.69735 62.7568 4.59285 0 1 0 0.019018 0.00720383 -0.0292473 3.41101 -14.8259 -4.93643 
3651 229 2 12.01 0.14 8.17077 14.0804 5.41395 8.17077 63.2627 5.41395 0 1 0 -0.00271418 -0.00135709 -0.000889523 1.40543 26.8142 13.4291 
718 45 3 1.008 0.03 4.70052 11.8802 6.56509 4.70052 -86.4845 6.56509 0 -2 0 0.00873839 -0.0290641 0.0184806 3.43534 -22.9492 8.58328 
9078 568 2 12.01 0.11 2.52026 15.0944 1.12269 51.7026 113.459 99.4874 1 2 2 -0.00466466 0.000263663 0.000283566 21.341 -23.1619 -30.7554 
3778 237 1 16 -0.4 6.85804 16.2067 3.11125 6.85804 65.389 3.11125 0 1 0 -0.000521418 0.00432527 -0.00897095 -1.48944 22.1112 -19.2687 
3786 237 3 1.008 0.03 8.01156 16.596 1.51954 8.01156 65.7784 1.51954 0 1 0 -0.0071542 -0.0131367 0.0155216 1.56843 12.5863 -11.8353 
9088 568 3 1.008 0.03 1.72977 15.534 1.66863 50.9121 113.899 100.033 1 2 2 0.00870696 0.00177675 0.000492446 -9.66859 22.3527 12.7538 
9820 616 6 16 -0.53 9.14962 14.2791 0.440357 58.332 14.2791 0.440357 1 0 0 0.00166438 -0.00522738 -0.00393381 10.2302 13.0346 -19.1102 
10149 638 6 16 -0.53 14.0944 14.6615 0.864151 14.0944 14.6615 50.0465 0 0 1 0.00343463 0.000998728 0.00213373 -13.6147 -22.7873 -36.0023 
782 49 3 1.008 0.03 11.2028 9.05873 1.07914 109.568 107.423 50.2615 2 2 1 0.0118752 -0.0112273 -0.00928975 17.9677 10.8677 0.124884 
969 61 3 1.008 0.03 14.9265 13.2702 7.30126 14.9265 13.2702 56.4836 0 0 1 -0.0143596 -0.0129895 0.018901 7.64331 9.39579 -2.93127 
963 61 2 12.01 0.14 15.1848 15.4919 7.26421 15.1848 15.4919 56.4466 0 0 1 0.000910731 0.00574335 0.00464435 10.0332 -15.7419 -12.3264 
7798 488 2 12.01 0.11 15.4626 11.3963 0.573802 64.6449 11.3963 0.573802 1 0 0 0.00205964 0.000281291 -0.000141567 15.3484 13.9692 -56.1774 
774 49 2 12.01 0.11 10.2691 8.61094 0.865327 108.634 106.976 50.0477 2 2 1 -0.00465997 8.07786e-05 0.00632059 -13.103 6.7154 2.64348 
7808 488 3 1.008 0.03 14.5924 10.8731 0.41288 63.7748 10.8731 0.41288 1 0 0 0.00265591 0.00439226 0.00802835 -33.9959 -25.1355 4.31201 
9643 604 8 19 -0.16 9.71949 8.73956 6.28854 9.71949 57.9219 6.28854 0 1 0 -0.000361624 -0.00312462 -0.00436248 1.8291 19.1882 -5.20523 
9640 604 6 16 -0.53 10.8779 10.3034 3.88515 10.8779 59.4858 3.88515 0 1 0 -0.00133912 -0.00222043 -0.00233652 -5.21146 -0.229658 23.5055 
10148 638 5 32.06 1.02 14.6718 15.3374 1.98424 14.6718 15.3374 51.1666 0 0 1 0.000596287 0.00342619 -0.000616503 32.35 23.4704 15.2984 
4956 310 3 1.008 0.03 12.1154 11.3945 1.31305 61.2977 11.3945 1.31305 1 0 0 -0.000949278 0.0153061 -0.0103405 -9.37105 -3.09693 -7.34082 
9641 604 7 12.01 0.35 10.992 9.13294 6.23586 10.992 58.3153 6.23586 0 1 0 -0.00485792 0.00342966 -0.0010533 -30.4903 -7.26467 0.265946 
9646 604 6 16 -0.53 15.3858 10.794 4.84076 15.3858 59.9764 4.84076 0 1 0 0.000970981 -0.00358627 -0.000869014 -35.9194 -1.66422 -3.98638 
4957 310 3 1.008 0.03 11.776 13.0946 1.43279 60.9584 13.0946 1.43279 1 0 0 -0.00819111 0.00550656 -0.00477197 5.27783 -0.0533106 -11.7626 
9639 604 6 16 -0.53 10.7809 11.7059 5.92683 10.7809 60.8883 5.92683 0 1 0 -0.000819144 0.00245089 0.003734 -13.4403 18.7215 15.6719 
9638 604 5 32.06 1.02 11.3654 10.6137 5.22545 11.3654 59.796 5.22545 0 1 0 -0.0018724 -0.000757287 0.00133047 -1.6606 -29.3977 -36.4869 
9637 604 4 14.01 -0.66 12.891 10.4695 5.39504 12.891 59.6519 5.39504 0 1 0 -0.00278311 0.000818242 -0.00102596 18.5715 6.61136 33.9962 
9645 604 5 32.06 1.02 14.0002 10.6689 4.35735 14.0002 59.8512 4.35735 0 1 0 0.00304554 0.000540506 0.000534635 -5.33188 1.66273 -69.6041 
9647 604 6 16 -0.53 13.5441 11.5537 3.27543 13.5441 60.7361 3.27543 0 1 0 -0.00550221 0.000388517 -0.00224171 33.9659 -12.5129 23.6401 
3658 229 3 1.008 0.03 10.0005 13.9712 4.38985 10.0005 63.1536 4.38985 0 1 0 -0.00588506 -0.0162494 0.0176838 5.67449 5.82168 -8.40644 
3652 229 2 12.01 0.14 9.50822 14.7108 5.01737 9.50822 63.8931 5.01737 0 1 0 -0.00101977 0.00580171 0.00435424 -7.0779 -12.8016 30.153 
3657 229 3 1.008 0.03 10.1089 14.8124 5.93948 10.1089 63.9948 5.93948 0 1 0 -0.00763772 -2.3393e-06 -0.00687912 -1.36911 -1.81947 -10.4566 
9648 604 7 12.01 0.35 13.9619 8.95843 3.5313 13.9619 58.1408 3.5313 0 1 0 0.00666119 -0.00044696 -0.00145842 19.5921 11.6388 68.0948 
10150 638 6 16 -0.53 14.339 14.9131 3.29284 14.339 14.9131 52.4752 0 0 1 0.000390787 -0.00621898 -0.00264256 -18.2004 -8.45036 23.6645 
9651 604 8 19 -0.16 14.7828 8.91821 2.52229 14.7828 58.1006 2.52229 0 1 0 -0.00229069 -0.00192858 0.000299229 13.1092 -5.85246 -13.5212 
3650 229 1 16 -0.4 9.28307 16.0169 4.50501 9.28307 65.1992 4.50501 0 1 0 -0.000833415 0.00112371 0.00067144 -23.5944 -5.40486 -9.51865 
3664 229 3 1.008 0.03 11.0928 15.6568 3.3735 11.0928 64.8391 3.3735 0 1 0 0.00874198 0.0256123 -0.0385297 -13.6701 -2.23564 8.26548 
10147 638 4 14.01 -0.66 16.1798 15.636 1.74452 16.1798 15.636 50.9269 0 0 1 0.00125132 0.00152422 -0.00222212 31.752 -2.62503 -17.353 
970 61 3 1.008 0.03 16.5065 13.8602 6.54339 16.5065 13.8602 55.7257 0 0 1 -0.0106661 0.00516763 -0.0135578 -28.0676 0.955855 10.9166 
968 61 3 1.008 0.03 14.8171 15.5767 6.23806 14.8171 15.5767 55.4204 0 0 1 0.0188714 -0.0167118 -0.00122039 10.2878 9.62176 -1.89814 
4949 310 2 12.01 0.11 11.7464 12.2444 0.733943 60.9287 12.2444 0.733943 1 0 0 0.000912195 -0.00210046 -0.0016515 23.4709 1.7094 -25.2323 
4955 310 3 1.008 0.03 10.7092 12.1225 0.455971 59.8916 12.1225 0.455971 1 0 0 0.0178098 -0.00294445 0.0229253 -7.43422 -7.12471 7.02384 
7807 488 3 1.008 0.03 15.4843 11.7341 1.55822 64.6666 11.7341 1.55822 1 0 0 -0.0119515 -0.0282485 -0.00445682 3.21047 14.6276 29.7809 
3654 229 2 12.01 0.11 10.486 16.41 3.91277 10.486 65.5924 3.91277 0 1 0 -0.000260427 -0.00873347 -0.00258714 42.7619 32.2191 -43.3282 
964 61 2 12.01 0.14 15.7432 14.0204 7.36336 15.7432 14.0204 56.5457 0 0 1 0.000239618 -0.0024428 0.000674889 29.662 18.0169 4.84801 
2775 174 3 1.008 0.03 21.1374 11.1567 1.1573 119.502 -87.208 1.1573 2 -2 0 -0.00850082 -0.0184021 -0.00955894 -1.94302 -24.968 18.8261 
1674 105 3 1.008 0.03 24.8429 12.9637 6.92624 -24.3394 -85.401 -42.2561 -1 -2 -1 0.0016643 0.00677803 -0.0302922 -23.7564 7.7861 17.8591 
2241 141 1 16 -0.4 18.9166 12.739 6.46426 18.9166 12.739 55.6466 0 0 1 -0.0025347 -0.00210037 -0.00213329 34.3534 -28.3764 -27.0415 
2252 141 3 1.008 0.03 18.1421 11.0527 5.58564 18.1421 11.0527 54.768 0 0 1 -0.00276715 0.00744746 -0.0216398 19.1532 -4.81848 11.4932 
1676 105 3 1.008 0.03 24.0193 13.2861 2.35349 -25.1631 -85.0786 -46.8289 -1 -2 -1 -0.0142825 -0.0193939 0.0114771 1.56703 -9.33534 -6.97422 
2253 141 3 1.008 0.03 19.853 11.3305 5.11327 19.853 11.3305 54.2956 0 0 1 -0.000297164 0.000870112 0.0122325 -11.0359 5.89824 6.52352 
1675 105 3 1.008 0.03 23.5948 14.675 3.29087 -25.5875 -83.6897 -45.8915 -1 -2 -1 0.00705173 0.000997384 0.038546 -9.9124 -14.0668 -3.41786 
10157 638 6 16 -0.53 17.0398 16.0554 4.10281 17.0398 16.0554 53.2852 0 0 1 0.00152853 0.00233212 0.000316547 -6.2099 3.13736 4.74979 
2772 174 2 12.01 0.14 21.7883 9.14505 1.91452 120.153 -89.2197 1.91452 2 -2 0 0.00210301 0.00481802 -0.00461191 16.4785 -42.9773 -1.21554 
4496 281 3 1.008 0.03 23.912 9.89273 5.68037 122.277 -39.2896 153.227 2 -1 3 -0.0189383 -0.00117006 0.00997433 2.8417 -9.26809 2.62997 
4482 281 1 16 -0.4 22.4818 8.69442 6.69889 120.846 -40.4879 154.246 2 -1 3 0.00414762 -0.00286797 -0.00140954 -10.4083 -7.48019 -5.67237 
3982 249 3 1.008 0.03 22.4434 14.8008 6.43905 71.6258 -34.3815 203.168 1 -1 4 0.018833 -0.0114109 -0.00289574 8.1047 41.4404 -13.3699 
2776 174 3 1.008 0.03 21.38 11.0078 2.90862 119.745 -87.3569 2.90862 2 -2 0 0.0211644 0.0165454 0.0143326 9.37977 -2.33183 -2.15812 
2781 174 3 1.008 0.03 18.0851 10.9253 3.04603 116.45 -87.4394 3.04603 2 -2 0 0.0183045 -0.0190054 -0.0105997 -2.25726 17.0556 -12.1723 
2769 174 1 16 -0.4 19.6987 10.1543 2.38263 118.063 -88.2104 2.38263 2 -2 0 0.00556889 -0.0124674 -0.000894444 6.10308 23.1052 -3.55984 
2780 174 3 1.008 0.03 18.6557 11.725 1.48282 117.02 -86.6397 1.48282 2 -2 0 -0.000573821 -0.0358277 0.000779987 -2.17407 -2.95049 9.5145 
10156 638 6 16 -0.53 18.6949 15.3306 2.39616 18.6949 15.3306 51.5785 0 0 1 -8.05996e-05 0.00188984 -0.0020501 -50.6639 15.1099 1.93844 
2779 174 3 1.008 0.03 19.2974 12.2272 3.10545 117.662 -86.1375 3.10545 2 -2 0 -0.009863 0.0353881 0.0154848 2.49554 -20.4916 -12.1003 
2773 174 2 12.01 0.11 18.9339 11.3638 2.48741 117.299 -87.0009 2.48741 2 -2 0 -0.000743858 -0.00492414 -0.00510237 -10.1844 -12.8779 11.6117 