ITEM: TIMESTEP
3300000
ITEM: NUMBER OF ATOMS
10479
ITEM: BOX BOUNDS pp pp pp
4.0882558190751794e-01 4.9591174418091420e+01
4.0882558190751794e-01 4.9591174418091420e+01
4.0882558190751794e-01 4.9591174418091420e+01
ITEM: ATOMS id mol type mass q x y z xu yu zu ix iy iz vx vy vz fx fy fz 
7927 496 3 1.008 0.03 3.90273 3.40894 2.89319 3.90273 3.40894 52.0755 0 0 1 -0.00113547 0.0235522 0.0206501 14.0514 3.61697 12.7041 
10117 636 4 14.01 -0.66 4.92897 7.51566 2.15613 4.92897 7.51566 51.3385 0 0 1 0.0067673 -0.00603691 0.000755319 -6.67228 1.87754 -8.61214 
10121 636 7 12.01 0.35 6.4437 5.44721 1.64514 6.4437 5.44721 50.8275 0 0 1 0.00273589 -0.00544524 -0.00687655 -21.073 -31.4987 -2.73904 
10124 636 8 19 -0.16 5.48904 4.72617 1.04226 5.48904 4.72617 50.2246 0 0 1 -0.00628826 -0.00427252 0.00416466 -8.4626 20.0746 18.7363 
10118 636 5 32.06 1.02 6.27474 7.2664 1.42463 6.27474 7.2664 50.607 0 0 1 -0.00284433 0.000717716 0.00165923 19.0782 -3.95259 -19.7388 
10122 636 8 19 -0.16 6.45694 5.11128 2.93314 6.45694 5.11128 52.1155 0 0 1 0.0064579 -0.00455658 -0.00652817 -6.6981 -0.347085 -7.58494 
7921 496 1 16 -0.4 3.00512 4.57731 4.47791 3.00512 4.57731 53.6603 0 0 1 -0.000634045 0.000609479 -0.00230297 21.0013 15.9132 49.535 
7929 496 3 1.008 0.03 3.44946 5.37487 1.75811 3.44946 5.37487 50.9405 0 0 1 -0.0212073 -0.00213633 -0.005268 -28.1031 -10.1573 18.3023 
7933 496 3 1.008 0.03 4.92997 4.05761 4.90569 4.92997 4.05761 54.088 0 0 1 -0.00128813 -0.0118301 0.00842517 12.1295 6.40418 9.356 
7925 496 2 12.01 0.11 3.96182 3.96551 5.37624 3.96182 3.96551 54.5586 0 0 1 0.00342874 -0.00434891 -0.0034711 -16.2515 -3.93076 -34.6404 
10127 636 6 16 -0.53 3.38754 7.45713 4.01604 3.38754 7.45713 53.1984 0 0 1 -0.00560873 0.00458639 0.0042936 -3.09284 -0.39232 18.9814 
7923 496 2 12.01 0.14 3.0216 3.89928 3.29601 3.0216 3.89928 52.4784 0 0 1 -0.00699293 0.000888289 -0.00454803 -30.6334 -22.5659 -54.3928 
7932 496 3 1.008 0.03 3.81822 2.91491 5.51535 3.81822 2.91491 54.6977 0 0 1 0.0293606 -0.0115704 0.0092188 -7.04618 -15.4931 -4.57198 
7928 496 3 1.008 0.03 2.28465 3.09495 3.31462 2.28465 3.09495 52.497 0 0 1 0.00655692 -0.0083521 0.0157057 1.77751 -0.493919 6.03001 
7930 496 3 1.008 0.03 2.19623 4.30029 1.39597 2.19623 4.30029 50.5783 0 0 1 -0.00826874 0.0169266 0.0136609 -15.7512 -9.77706 -12.4585 
7924 496 2 12.01 0.14 2.54189 4.86886 2.22556 2.54189 4.86886 51.4079 0 0 1 0.0106144 -0.00447269 0.000597158 41.9842 33.3207 -20.7686 
2249 141 3 1.008 0.03 4.31255 6.62319 6.69905 4.31255 6.62319 55.8814 0 0 1 0.0224392 -0.000925917 0.0164358 -18.0614 19.727 14.1016 
7931 496 3 1.008 0.03 3.89819 4.31809 6.366 3.89819 4.31809 55.5483 0 0 1 0.0274349 -0.0264889 0.0114505 6.07159 18.109 19.3857 
2242 141 1 16 -0.4 2.26999 6.36259 6.68512 2.26999 6.36259 55.8675 0 0 1 0.000462686 -0.000475759 0.00906054 14.0629 23.2456 -18.7419 
10461 672 9 24.305 2 1.91675 6.14596 4.65574 1.91675 6.14596 53.8381 0 0 1 0.000170811 0.00317856 -0.00251516 15.9725 5.79642 -0.115696 
4357 273 2 12.01 0.11 6.31352 1.03615 4.5416 55.4959 1.03615 201.271 1 0 4 0.000660198 0.00822352 -0.00506237 -37.2638 -21.1877 -8.49484 
7922 496 1 16 -0.4 1.62263 5.88227 2.69381 1.62263 5.88227 51.8762 0 0 1 0.00160782 -0.00323374 0.00641668 1.68906 -24.533 9.78442 
4353 273 1 16 -0.4 6.62378 2.30374 4.19747 55.8061 2.30374 200.927 1 0 4 0.00668354 -0.00466745 0.00137902 13.0834 42.3755 4.92452 
7903 494 3 1.008 0.03 7.90186 4.18305 6.42626 -41.2805 102.548 55.6086 -1 2 1 -0.00157349 -0.00357277 -0.0109132 3.39889 3.42039 -17.8885 
10125 636 5 32.06 1.02 4.70735 7.92132 3.62091 4.70735 7.92132 52.8033 0 0 1 -0.00456142 0.0035136 -0.00202582 -11.4734 -21.2442 -5.10919 
10120 636 6 16 -0.53 7.4606 7.81412 2.06331 7.4606 7.81412 51.2457 0 0 1 0.0020606 -0.00313821 -0.00509575 -6.43947 -4.02749 -14.4494 
10126 636 6 16 -0.53 5.77756 7.64002 4.50393 5.77756 7.64002 53.6863 0 0 1 0.00316903 -0.00180622 -0.00513529 14.8089 -7.88397 26.9651 
973 61 3 1.008 0.03 1.08241 2.9599 5.21493 1.08241 2.9599 54.3973 0 0 1 0.00653983 -0.0412547 -0.0279075 -4.5382 22.6408 -6.44176 
7926 496 2 12.01 0.11 0.93428 6.48311 1.59866 0.93428 6.48311 50.781 0 0 1 -0.00611753 0.00107576 0.00271814 15.0068 39.6544 17.4104 
5399 338 3 1.008 0.03 3.53246 0.639852 1.99148 52.7148 99.0045 1.99148 1 2 0 -0.00988642 0.0112668 -0.0199885 8.32681 22.697 0.276652 
2244 141 2 12.01 0.14 3.44638 6.91236 7.36405 3.44638 6.91236 56.5464 0 0 1 -0.00171935 0.00468429 0.00269019 1.43494 -53.1429 -69.6376 
7936 496 3 1.008 0.03 1.65048 7.14256 1.03284 1.65048 7.14256 50.2152 0 0 1 0.0144386 -0.0169336 0.0268741 -18.9845 -17.7881 3.12441 
10123 636 8 19 -0.16 7.47756 4.86723 1.09393 7.47756 4.86723 50.2763 0 0 1 0.00185615 -0.00205041 0.00394051 29.2981 16.5785 0.417136 
4360 273 3 1.008 0.03 6.72863 2.52088 2.16669 55.911 2.52088 198.896 1 0 4 -0.0216568 -0.000473399 0.0323374 24.418 8.34493 24.5233 
4362 273 3 1.008 0.03 8.42794 4.32886 3.4035 57.6103 4.32886 200.133 1 0 4 -0.0176791 -0.015669 -0.00190998 5.93203 -39.6553 -21.7052 
4355 273 2 12.01 0.14 7.42341 2.31989 3.03999 56.6058 2.31989 199.769 1 0 4 -0.00357191 -0.00163357 -0.00211646 -12.4868 -32.7896 -46.5735 
4359 273 3 1.008 0.03 7.78046 1.27848 2.75815 56.9628 1.27848 199.488 1 0 4 -0.0343189 -0.00679558 0.00789961 -2.60514 28.7363 7.11178 
4363 273 3 1.008 0.03 5.66339 0.723409 3.70214 54.8457 0.723409 200.432 1 0 4 0.00833104 -0.0205919 0.00768177 4.87395 -9.69886 13.2824 
5394 338 1 16 -0.4 1.21566 1.01983 1.27414 50.398 99.3845 1.27414 1 2 0 -0.0010211 0.00579514 0.00685661 -17.1647 -11.4237 13.7271 
4365 273 3 1.008 0.03 5.73471 1.00581 5.46626 54.9171 1.00581 202.196 1 0 4 -0.0133211 -0.00206078 0.0101411 2.88603 -1.62036 0.886349 
7902 494 3 1.008 0.03 6.30407 3.46577 6.8333 -42.8783 101.83 56.0157 -1 2 1 -0.0195606 -0.0178478 0.00737059 10.8813 -0.458009 2.61702 
962 61 1 16 -0.4 0.565691 7.43422 4.52013 0.565691 7.43422 53.7025 0 0 1 -0.00636831 0.00169033 -0.00028094 -22.926 39.2938 11.958 
9587 600 6 16 -0.53 1.67203 1.48526 7.28093 -47.5103 1.48526 7.28093 -1 0 0 0.00828019 -0.00380843 -0.000318594 -23.0139 -26.2376 -40.1935 
4364 273 3 1.008 0.03 7.20037 0.438354 4.59244 56.3827 0.438354 201.322 1 0 4 0.0197787 0.0180323 0.00328787 6.98156 -14.2961 8.66615 
7894 494 2 12.01 0.11 7.30594 3.75496 7.19855 -41.8764 102.12 56.3809 -1 2 1 0.00627019 0.00797925 -0.00159164 8.65107 -16.269 15.2611 
4366 273 3 1.008 0.03 11.2445 3.69538 4.14551 60.4269 3.69538 200.875 1 0 4 0.0111632 0.0101899 0.0183936 -0.788292 16.0915 -0.929925 
4358 273 2 12.01 0.11 10.3459 3.70423 4.76407 59.5282 3.70423 201.493 1 0 4 -0.000471578 -0.00415804 -0.00131175 -26.406 -10.2114 24.6992 
469 30 2 12.01 0.11 14.1662 4.54267 0.979787 63.3485 53.725 50.1621 1 1 1 0.00375718 0.00192819 -0.00412283 -26.9886 -9.56241 0.748921 
466 30 1 16 -0.4 16.6742 2.75417 4.44598 65.8565 51.9365 53.6283 1 1 1 -0.00377995 -0.0032498 -0.00604352 -0.76585 5.36838 -4.08373 
465 30 1 16 -0.4 14.5442 3.61244 2.03001 63.7265 52.7948 51.2124 1 1 1 -0.00260888 -0.00183439 -0.00565127 -0.480299 5.21369 -14.8344 
467 30 2 12.01 0.14 15.1732 4.17713 3.17537 64.3555 53.3595 52.3577 1 1 1 0.00414807 -0.00493368 -0.00333326 -23.0127 4.61056 32.3723 
468 30 2 12.01 0.14 15.3386 3.14506 4.33011 64.521 52.3274 53.5125 1 1 1 -0.00034576 -0.00236485 -0.0020544 -7.05201 18.8081 -18.9313 
474 30 3 1.008 0.03 14.6818 2.31085 4.24326 63.8642 51.4932 53.4256 1 1 1 -0.00820887 0.00862523 -0.00454337 -9.52996 -14.6738 -10.1781 
479 30 3 1.008 0.03 16.2315 0.985539 5.49837 65.4138 50.1679 54.6807 1 1 1 -0.0112287 0.0336543 0.00742699 7.18229 23.7568 3.65681 
470 30 2 12.01 0.11 16.7822 1.96548 5.5846 65.9645 51.1478 54.767 1 1 1 0.0015496 0.000826998 -0.0018721 36.9569 -32.3813 40.1439 
472 30 3 1.008 0.03 14.5895 5.00604 3.67189 63.7718 54.1884 52.8542 1 1 1 0.0116153 0.0182511 0.00236472 10.1317 -13.9285 -24.3625 
4356 273 2 12.01 0.14 8.6559 3.22279 3.17062 57.8383 3.22279 199.9 1 0 4 -0.00603645 -0.00678224 -0.00557089 -8.58571 19.3715 22.2334 
471 30 3 1.008 0.03 16.1463 4.53175 2.91178 65.3286 53.7141 52.0941 1 1 1 0.0109785 -0.0269935 0.00955266 11.0798 10.6329 -5.51617 
4361 273 3 1.008 0.03 9.27815 2.98794 2.31921 58.4605 2.98794 199.049 1 0 4 0.00495771 0.0117885 -0.00141236 2.51126 19.8355 -12.0359 
4354 273 1 16 -0.4 9.43005 2.711 4.22905 58.6124 2.711 200.958 1 0 4 0.00146019 -0.000679943 -0.00612347 10.9982 17.9048 21.146 
4368 273 3 1.008 0.03 10.662 3.39275 5.77475 59.8444 3.39275 202.504 1 0 4 -0.0112789 0.023729 0.00644411 0.417361 -4.97967 -12.1126 
478 30 3 1.008 0.03 16.5585 2.49953 6.56897 65.7409 51.6819 55.7513 1 1 1 0.0245121 0.0107172 0.00961123 1.67503 -16.1183 -30.8396 
473 30 3 1.008 0.03 15.0008 3.58551 5.25229 64.1831 52.7679 54.4346 1 1 1 -0.0117961 -9.07909e-05 0.0116473 0.294674 9.8513 8.35065 
4367 273 3 1.008 0.03 9.84174 4.68651 5.03709 59.0241 4.68651 201.766 1 0 4 -0.0162017 -0.0111377 0.0258793 19.6801 -20.4717 -21.6059 
475 30 3 1.008 0.03 13.2067 5.01582 1.28553 62.3891 54.1982 50.4679 1 1 1 -0.00518477 -0.0181708 0.000816221 11.6539 -7.77741 -6.59139 
476 30 3 1.008 0.03 14.8141 5.36599 0.768697 63.9965 54.5483 49.951 1 1 1 0.00926969 -0.0139006 -0.00202693 18.2695 6.76506 6.97753 
3820 239 3 1.008 0.03 9.26912 8.29838 5.17155 9.26912 57.4807 54.3539 0 1 1 -0.0272961 0.0104838 0.0121956 8.2821 4.09586 0.337594 
8799 550 3 1.008 0.03 12.6046 2.08993 0.930983 -85.7601 198.819 50.1133 -2 4 1 -0.00584849 -0.00101242 0.0032586 25.2691 2.95586 14.4427 
3819 239 3 1.008 0.03 10.5436 8.38433 3.97475 10.5436 57.5667 53.1571 0 1 1 -0.0141744 0.00526771 0.00966959 8.57552 -0.781597 -3.65638 
8831 552 3 1.008 0.03 13.7192 5.92263 6.13794 13.7192 104.287 104.503 0 2 2 0.0231784 -0.0150231 -0.0207831 6.32993 -5.73368 -4.88736 
3160 198 3 1.008 0.03 14.236 7.49961 3.52094 112.601 7.49961 52.7033 2 0 1 -0.0138961 0.0110698 0.0161558 -5.03933 13.5425 16.2211 
3155 198 2 12.01 0.14 14.7684 7.99483 2.72427 113.133 7.99483 51.9066 2 0 1 0.00281411 0.00708365 0.00155544 -0.988085 -25.9228 12.1976 
3159 198 3 1.008 0.03 14.1043 7.70635 1.93255 112.469 7.70635 51.1149 2 0 1 0.00389775 0.00894311 -0.00915644 3.71996 -0.358645 -19.3227 
3153 198 1 16 -0.4 16.019 7.32865 2.66018 114.384 7.32865 51.8425 2 0 1 7.41858e-05 -0.00254392 0.000153629 2.67288 -8.2523 -25.3063 
3163 198 3 1.008 0.03 16.2964 6.67649 4.64326 114.661 6.67649 53.8256 2 0 1 -0.00812724 0.0118141 -0.0138548 19.8813 24.3005 -24.0776 
8800 550 3 1.008 0.03 11.0584 2.70908 0.686569 -87.3063 199.438 49.8689 -2 4 1 -0.0109264 0.0139097 -0.00241455 0.519108 -15.2306 2.30658 
8825 552 3 1.008 0.03 12.6163 7.78486 6.5916 12.6163 106.15 104.956 0 2 2 0.0157997 0.00542646 0.0138983 -12.4669 6.17258 -46.4519 
8798 550 3 1.008 0.03 11.3127 0.944682 0.905839 -87.052 197.674 50.0882 -2 4 1 -0.00158272 0.00930065 0.0270445 0.25414 -1.17186 -10.8048 
2474 155 3 1.008 0.03 10.944 0.89253 6.53339 -38.2383 197.622 -42.649 -1 4 -1 0.0113853 -6.0629e-05 0.00141157 14.827 -42.1019 -2.73446 
8822 552 2 12.01 0.11 14.2254 6.04431 7.09349 14.2254 104.409 105.458 0 2 2 0.00296816 -0.0011422 -0.00684509 -1.77563 -24.3206 1.70446 
8832 552 3 1.008 0.03 15.0588 6.71831 6.93651 15.0588 105.083 105.301 0 2 2 0.0199389 0.0014224 0.016127 0.914004 7.93967 4.24566 
8107 507 3 1.008 0.03 12.612 3.30336 7.34594 61.7944 3.30336 105.711 1 0 2 0.0414601 -0.00763413 -0.0148781 -11.5014 14.227 -43.0017 
8830 552 3 1.008 0.03 14.6684 5.06116 7.39155 14.6684 103.426 105.756 0 2 2 0.000339412 0.00777963 0.013933 -11.9887 16.3267 -2.85627 
2681 168 3 1.008 0.03 10.2519 6.35718 0.444949 -88.1128 6.35718 49.6273 -2 0 1 -0.00214813 0.0266903 0.0120113 7.14832 -9.82431 -18.1141 
8790 550 2 12.01 0.11 11.7099 1.85359 0.440303 -86.6548 198.583 49.6227 -2 4 1 0.00740405 -0.00259952 0.00297797 -10.7997 18.2236 -13.1976 
418 27 1 16 -0.4 19.4473 0.663854 2.12026 19.4473 49.8462 51.3026 0 1 1 0.0090816 -0.00340869 0.000382125 -16.7523 -45.3719 0.750902 
480 30 3 1.008 0.03 17.8776 1.67667 5.63566 67.0599 50.859 54.818 1 1 1 0.007507 -0.00738815 0.0182923 -29.2908 7.41425 1.18809 
9453 591 3 1.008 0.03 19.1249 5.62244 6.93753 19.1249 54.8048 56.1199 0 1 1 0.0144327 0.000440963 -0.0189988 3.39759 -3.37835 5.83842 
10293 647 7 12.01 0.35 22.968 0.521693 1.36394 22.968 49.704 1.36394 0 1 0 -0.00326309 -0.000119706 0.00373029 20.2223 -45.1742 -16.0446 
2017 127 1 16 -0.4 24.9049 1.45452 5.84502 -24.2775 50.6369 5.84502 -1 1 0 -0.00445159 0.00151444 -0.000162836 -6.45705 -15.6212 -5.62812 
9451 591 3 1.008 0.03 19.3336 3.88207 6.616 19.3336 53.0644 55.7983 0 1 1 -0.0295995 -0.0034556 0.0125764 7.13248 -3.29291 -7.15421 
2026 127 3 1.008 0.03 22.7329 2.45361 4.20135 -26.4495 51.636 4.20135 -1 1 0 -0.02586 -0.0220793 -0.0110311 -0.609325 0.290052 -10.0475 
422 27 2 12.01 0.11 19.3577 1.94708 1.62059 19.3577 51.1294 50.8029 0 1 1 0.00532059 0.00475341 0.00487494 -13.102 7.61234 -1.12181 
2019 127 2 12.01 0.14 24.1166 2.61165 5.7415 -25.0657 51.794 5.7415 -1 1 0 -0.00666143 -0.00186655 -8.08896e-05 45.1233 68.8547 -27.4768 
8460 529 3 1.008 0.03 23.689 4.39419 1.93875 72.8713 53.5765 100.303 1 1 2 0.0157665 0.0240336 -0.000475277 -0.609293 7.2467 -2.0973 
8459 529 3 1.008 0.03 23.7058 6.2093 1.96215 72.8882 55.3916 100.327 1 1 2 -0.003459 0.0375419 -0.00488743 -0.331539 -15.3237 3.19801 
8453 529 2 12.01 0.11 23.2608 5.2951 2.39671 72.4431 54.4774 100.761 1 1 2 0.00360477 0.00147755 -0.00649252 -3.57012 -10.651 0.784649 
2020 127 2 12.01 0.14 22.7658 2.30948 5.2676 -26.4165 51.4918 5.2676 -1 1 0 -0.00908329 0.00153347 0.00411045 -53.3221 -42.9059 -8.40157 
8449 529 1 16 -0.4 23.4516 5.1825 3.81429 72.6339 54.3648 102.179 1 1 2 0.00864391 -0.00550705 0.00101844 -12.5096 57.3079 8.20411 
6543 409 3 1.008 0.03 19.8742 6.18095 1.52901 118.239 6.18095 50.7114 2 0 1 0.0201513 0.0174995 0.012913 -14.6047 -6.02381 -17.2035 
8455 529 3 1.008 0.03 23.9229 7.24895 3.98641 73.1053 56.4313 102.351 1 1 2 -0.0163094 0.00735863 0.00862459 -10.54 -1.80123 -1.19109 
8451 529 2 12.01 0.14 23.1873 6.534 4.38545 72.3696 55.7163 102.75 1 1 2 -0.000432395 0.00541679 -0.00538367 -8.62246 -51.9558 19.3698 
8456 529 3 1.008 0.03 22.1308 6.77942 4.10614 71.3132 55.9618 102.471 1 1 2 0.0103159 0.00377614 -0.00547768 21.6056 5.96874 1.87825 
2025 127 3 1.008 0.03 21.9181 2.92954 5.65784 -27.2643 52.1119 5.65784 -1 1 0 -0.013639 0.0236347 -0.0176108 21.1519 -7.69182 1.54226 
8461 529 3 1.008 0.03 22.1902 5.30212 2.13345 71.3726 54.4845 100.498 1 1 2 0.0212146 0.00618879 -0.0106266 7.54809 0.403308 3.90571 
8457 529 3 1.008 0.03 23.285 7.62304 6.25343 72.4674 56.8054 104.618 1 1 2 -0.0236041 0.0115487 -0.025267 -15.2787 -20.172 2.3177 
8450 529 1 16 -0.4 24.4753 6.03251 6.48271 73.6576 55.2149 104.847 1 1 2 0.00130551 -2.44433e-05 0.0083141 -7.4254 9.81081 53.9376 
8452 529 2 12.01 0.14 23.2716 6.54928 5.97863 72.454 55.7316 104.343 1 1 2 0.000299962 0.00183071 0.00580652 2.45858 19.3342 -27.7902 
10295 647 8 19 -0.16 22.0192 0.766082 2.19277 22.0192 49.9484 2.19277 0 1 0 0.00394156 -0.00240971 0.00084887 -32.0214 17.1032 10.9812 
432 27 3 1.008 0.03 18.9043 2.58213 2.36011 18.9043 51.7645 51.5425 0 1 1 -0.0335649 -0.00306374 -0.00408921 -6.4261 8.60015 4.13416 
8458 529 3 1.008 0.03 22.4667 6.06922 6.54434 71.6491 55.2516 104.909 1 1 2 -0.0164746 0.0278584 -0.0164262 -10.7893 0.59147 -19.8432 
9445 591 2 12.01 0.11 18.7289 4.61827 7.11649 18.7289 53.8006 56.2988 0 1 1 0.00320839 0.00102396 0.000340136 -25.6204 -7.92218 17.1399 
9452 591 3 1.008 0.03 17.7257 4.59002 6.6609 17.7257 53.7724 55.8432 0 1 1 -0.04443 -0.00200922 0.00874134 8.45058 0.259627 0.618502 
2023 127 3 1.008 0.03 24.0498 3.17917 6.65386 -25.1325 52.3615 6.65386 -1 1 0 -0.000803764 -0.0243783 -0.0320694 -3.60615 -1.69311 12.8407 
2030 127 3 1.008 0.03 20.5435 0.95016 6.02033 -28.6388 50.1325 6.02033 -1 1 0 0.00171925 0.0179705 -0.000723311 -7.35557 15.5148 2.84477 
426 27 3 1.008 0.03 17.6027 0.428994 3.05617 17.6027 49.6113 52.2385 0 1 1 -0.00027355 -0.0119024 -0.0130105 -0.0800803 -2.74067 0.283224 
3165 198 3 1.008 0.03 17.0491 8.28169 4.07012 115.414 8.28169 53.2525 2 0 1 -0.0128477 0.00567916 0.00872358 3.45125 14.7167 15.4852 
2937 184 3 1.008 0.03 19.1129 8.21945 5.99503 -79.2518 57.4018 -43.1873 -2 1 -1 0.00617914 -0.0225734 0.0151488 8.78156 -2.33813 -12.832 
3157 198 2 12.01 0.11 16.8219 7.2743 3.81635 115.187 7.2743 52.9987 2 0 1 0.00939122 -0.00401263 0.00488674 -2.92103 -37.2576 9.33037 
10142 637 6 16 -0.53 23.3432 8.57324 1.06685 -25.8391 57.7556 1.06685 -1 1 0 0.00450729 0.00925075 -0.00535117 -7.54493 18.9727 7.62641 
3164 198 3 1.008 0.03 17.7985 6.78449 3.54635 116.163 6.78449 52.7287 2 0 1 -0.0165152 0.00213177 -0.00465901 -21.4444 7.45262 8.42769 
10296 647 8 19 -0.16 23.0901 1.50829 0.493565 23.0901 50.6906 0.493565 0 1 0 -0.00438365 0.000452242 0.00103356 -7.15906 3.57266 -0.317366 
6534 409 2 12.01 0.11 19.2742 5.53636 0.831708 117.639 5.53636 50.0141 2 0 1 0.00580294 0.00343867 0.000489928 27.4453 -10.1996 71.0421 
430 27 3 1.008 0.03 20.3473 2.24769 1.48435 20.3473 51.43 50.6667 0 1 1 0.00443012 -0.0032654 0.00202402 28.4333 15.299 -2.06778 
2018 127 1 16 -0.4 22.5964 0.868916 5.53484 -26.586 50.0513 5.53484 -1 1 0 -0.00681726 -0.00345345 -1.96726e-05 -12.7405 14.4394 -0.299634 
2024 127 3 1.008 0.03 24.6713 3.36984 5.05139 -24.5111 52.5522 5.05139 -1 1 0 -0.0161006 0.00712734 0.0239289 -28.875 -33.8832 24.1474 
6542 409 3 1.008 0.03 18.8317 4.77393 1.4898 117.196 4.77393 50.6721 2 0 1 0.0250045 0.00598101 0.0187078 -8.23699 10.504 -6.40903 
431 27 3 1.008 0.03 18.896 2.07627 0.64649 18.896 51.2586 49.8288 0 1 1 -0.00855102 0.0452569 0.00199934 -7.44545 -5.58422 -1.1656 
10282 647 4 14.01 -0.66 24.9756 1.72557 2.6999 24.9756 50.9079 2.6999 0 1 0 -0.000684175 -0.00940314 0.00412225 7.77518 -11.6092 -5.19378 
2253 141 3 1.008 0.03 1.7912 10.945 6.51033 1.7912 10.945 55.6927 0 0 1 -0.00711099 0.00433824 0.0238938 25.683 -10.4796 4.13003 
3705 232 3 1.008 0.03 0.515485 13.5642 1.03523 148.063 13.5642 50.2176 3 0 1 -0.017158 -0.0156394 0.0251137 -10.564 -4.60574 6.7455 
966 61 2 12.01 0.11 0.631855 8.88154 4.59868 0.631855 8.88154 53.781 0 0 1 0.00132074 0.00345823 0.00760629 -11.9197 -25.4427 6.55645 
7629 477 3 1.008 0.03 7.31468 16.7929 6.56805 7.31468 16.7929 55.7504 0 0 1 -0.00931296 0.0105517 -0.0119269 3.22416 -9.52372 1.62043 
5277 330 3 1.008 0.03 6.43534 15.6649 2.56214 55.6177 -33.5174 -46.6202 1 -1 -1 -0.00945714 0.0393022 -0.0263372 25.983 -13.1476 1.1376 
10130 636 8 19 -0.16 3.53407 10.1044 2.9255 3.53407 10.1044 52.1079 0 0 1 0.00565074 0.0045881 0.000597496 8.45049 0.824936 -7.0135 
10131 636 8 19 -0.16 4.57856 10.3047 4.69066 4.57856 10.3047 53.873 0 0 1 -0.00332047 0.00497378 -0.00393603 -1.33192 -1.2357 21.4343 
10128 636 7 12.01 0.35 4.64323 9.71344 3.54436 4.64323 9.71344 52.7267 0 0 1 -0.00463849 -0.00247805 0.00167436 -14.8988 10.1775 -34.4982 
869 55 2 12.01 0.11 4.19647 12.8927 4.29396 -44.9859 12.8927 4.29396 -1 0 0 0.00119537 0.00396143 -0.00543433 19.9293 49.1105 -50.3497 
10129 636 8 19 -0.16 5.69143 10.2189 2.89926 5.69143 10.2189 52.0816 0 0 1 0.000328599 -0.0081072 0.00464358 -7.97788 1.8354 1.44709 
871 55 3 1.008 0.03 2.51427 14.9368 5.36027 -46.6681 14.9368 5.36027 -1 0 0 0.0178128 -0.015202 -0.0131203 -13.0947 -11.5475 -4.10399 
876 55 3 1.008 0.03 4.43735 12.3856 3.33874 -44.745 12.3856 3.33874 -1 0 0 -0.0202481 -0.000211633 0.00498512 -5.99824 -3.50603 15.0004 
865 55 1 16 -0.4 3.85215 14.2389 3.83599 -45.3302 14.2389 3.83599 -1 0 0 0.000260218 -0.00084154 0.0026224 -3.56899 -33.0023 14.6014 
875 55 3 1.008 0.03 3.36318 12.4543 4.7876 -45.8192 12.4543 4.7876 -1 0 0 -0.0201355 -0.000274076 -0.0213712 -9.69159 -13.1751 12.2122 
867 55 2 12.01 0.14 3.48123 15.0761 4.91487 -45.7011 15.0761 4.91487 -1 0 0 0.00385239 -0.000465836 0.00507487 -11.5562 15.4471 -24.4044 
872 55 3 1.008 0.03 4.13636 14.8026 5.68877 -45.046 14.8026 5.68877 -1 0 0 -0.011824 0.0086978 -0.0115564 23.5854 16.1417 24.0087 
3703 232 3 1.008 0.03 2.79333 12.1398 1.13893 150.34 12.1398 50.3213 3 0 1 -0.011874 0.00886574 0.0108093 -14.4033 25.775 -13.1509 
877 55 3 1.008 0.03 5.13864 12.9457 4.86234 -44.0437 12.9457 4.86234 -1 0 0 -0.00213744 -0.00892479 -0.00477706 -10.7681 -6.41158 4.35446 
3700 232 2 12.01 0.14 1.46741 13.9832 0.779115 149.014 13.9832 49.9615 3 0 1 -0.00221893 -0.00317759 -0.000597879 0.0996227 -32.2991 0.609941 
5269 330 2 12.01 0.11 7.28364 15.3031 1.91892 56.466 -33.8793 -47.2634 1 -1 -1 0.00393089 -0.0106479 -0.00238751 -21.0698 26.6931 3.2868 
5276 330 3 1.008 0.03 6.95501 14.4101 1.42341 56.1374 -34.7723 -47.7589 1 -1 -1 5.35523e-05 0.0145093 0.000709215 -5.94034 -9.99977 -3.48845 
7628 477 3 1.008 0.03 6.81186 15.3826 5.64298 6.81186 15.3826 54.8253 0 0 1 -0.0208708 0.00118585 -0.00346711 5.1062 -4.89332 10.8725 
2241 141 1 16 -0.4 2.75427 9.06839 6.55564 2.75427 9.06839 55.738 0 0 1 0.000870329 0.00396943 -0.0020119 15.6681 6.25339 55.579 
976 61 3 1.008 0.03 1.5299 9.29817 4.32254 1.5299 9.29817 53.5049 0 0 1 0.019135 0.00485472 0.00427702 39.4479 6.8371 -15.7697 
3706 232 3 1.008 0.03 1.8999 14.346 1.66625 149.447 14.346 50.8486 3 0 1 0.00138681 -0.018327 -0.00290822 7.97634 10.7652 23.9352 
3710 232 3 1.008 0.03 0.5541 16.4069 1.47989 148.101 16.4069 50.6622 3 0 1 0.0178624 0.0187763 0.000178552 -6.05466 -9.36862 -31.1726 
5265 330 1 16 -0.4 8.56827 15.023 2.47077 57.7506 -34.1594 -46.7116 1 -1 -1 -0.00210504 -0.00100083 -0.00172346 -6.51805 -17.6611 9.00698 
7627 477 3 1.008 0.03 8.54104 15.5782 6.01347 8.54104 15.5782 55.1958 0 0 1 0.011955 0.00173747 -0.013799 -4.90454 11.602 -6.99563 
5275 330 3 1.008 0.03 7.29773 16.0642 1.14353 56.4801 -33.1181 -48.0388 1 -1 -1 -0.0207288 -0.0120599 -0.000129416 10.4566 0.826706 -2.73263 
7620 477 2 12.01 0.14 7.9423 12.7013 6.78386 7.9423 12.7013 55.9662 0 0 1 0.00504399 -0.00792122 0.00131633 -61.8614 -21.3686 28.7685 
7625 477 3 1.008 0.03 7.54439 13.1475 5.90429 7.54439 13.1475 55.0866 0 0 1 0.0238713 -0.00677775 0.0137109 -3.65329 -0.487703 -19.6015 
7621 477 2 12.01 0.11 7.53088 15.7229 6.40872 7.53088 15.7229 55.5911 0 0 1 -0.000310133 0.00362846 -0.000274822 6.64822 -9.97767 6.34651 
874 55 3 1.008 0.03 2.66741 16.6925 3.57546 -46.5149 16.6925 3.57546 -1 0 0 -0.00826393 -0.0208767 -0.00667861 27.9919 -18.4455 16.4947 
873 55 3 1.008 0.03 4.46667 16.6604 3.84138 -44.7157 16.6604 3.84138 -1 0 0 -0.0247003 0.00796522 0.00255435 4.34597 -0.45789 -7.44173 
868 55 2 12.01 0.14 3.51086 16.5096 4.32396 -45.6715 16.5096 4.32396 -1 0 0 -0.00666614 -0.00229581 -0.000113479 -23.2016 17.4568 -11.0732 
2245 141 2 12.01 0.11 2.65354 10.4299 7.02456 2.65354 10.4299 56.2069 0 0 1 -0.00371133 -0.00680805 -0.000151938 -5.17192 40.8249 -19.2534 
7630 477 3 1.008 0.03 5.72751 10.9392 6.15642 5.72751 10.9392 55.3388 0 0 1 -0.0290337 0.0152879 -0.0129378 -14.017 9.0453 -24.5925 
7622 477 2 12.01 0.11 6.44579 10.8025 6.88357 6.44579 10.8025 56.0659 0 0 1 0.00322032 0.00119357 0.0028946 25.5973 9.70209 31.2662 
7631 477 3 1.008 0.03 7.25266 10.1675 6.58298 7.25266 10.1675 55.7653 0 0 1 0.00385593 -0.0276497 -0.0188245 12.4712 -2.74683 -12.3046 
2252 141 3 1.008 0.03 3.61322 11.0042 6.86878 3.61322 11.0042 56.0511 0 0 1 0.00118093 -0.00694761 0.0112784 -24.952 -15.0361 -3.72553 
975 61 3 1.008 0.03 0.494007 9.30169 5.57844 0.494007 9.30169 54.7608 0 0 1 -0.00415045 -0.00239223 0.0166194 -10.9342 -4.59453 9.79281 
7623 477 3 1.008 0.03 9.43726 13.9171 7.36923 9.43726 13.9171 56.5516 0 0 1 -0.0143046 0.00463329 0.0364974 5.68987 22.528 0.535455 
7626 477 3 1.008 0.03 8.67193 11.9511 6.50392 8.67193 11.9511 55.6863 0 0 1 -0.00425466 0.00366926 0.00925439 12.3238 2.93167 1.89031 
3821 239 3 1.008 0.03 9.37313 9.66453 4.12489 9.37313 58.8469 53.3072 0 1 1 -0.0178715 0.00262104 -0.000923936 -5.76297 8.78914 -6.69287 
3813 239 2 12.01 0.11 9.98293 8.97875 4.68033 9.98293 58.1611 53.8627 0 1 1 5.12049e-05 -0.00377952 0.00518895 4.82589 8.33063 27.4946 
3809 239 1 16 -0.4 10.8097 9.69236 5.65589 10.8097 58.8747 54.8382 0 1 1 0.00153874 -0.00265523 0.00360196 -0.147712 24.2108 -35.9202 
5272 330 3 1.008 0.03 8.74364 16.5228 3.86656 57.926 -32.6595 -45.3158 1 -1 -1 0.00831812 -0.00112442 -0.00638424 -24.9147 18.4471 12.0846 
3162 198 3 1.008 0.03 15.7484 9.81587 2.13575 114.113 9.81587 51.3181 2 0 1 0.0256408 0.00640135 0.0129021 6.65145 -1.27106 -5.90362 
5267 330 2 12.01 0.14 9.2837 16.0543 3.10343 58.466 -33.128 -46.0789 1 -1 -1 0.00506134 -0.00560501 0.00162844 34.9939 0.652132 -30.3209 
3161 198 3 1.008 0.03 15.1229 9.86587 3.82127 113.488 9.86587 53.0036 2 0 1 0.00942012 -0.0032096 0.0122522 -0.536999 -15.8448 -38.063 
3168 198 3 1.008 0.03 14.7187 12.0405 2.24474 113.083 12.0405 51.4271 2 0 1 0.00626263 -0.00823333 -0.00496422 7.58519 15.1346 11.8201 
5271 330 3 1.008 0.03 9.63176 16.7452 2.32059 58.8141 -32.4372 -46.8618 1 -1 -1 -0.0223572 -0.0407641 0.0246095 -8.42066 4.06488 9.32034 
3158 198 2 12.01 0.11 13.9984 11.4416 1.74222 112.363 11.4416 50.9246 2 0 1 0.0093474 -0.0010646 0.00339881 -6.62752 -68.3287 -10.4617 
5278 330 3 1.008 0.03 12.8017 15.0244 4.63912 61.984 -34.158 -44.5432 1 -1 -1 0.0346865 0.00193155 -0.000791266 4.28216 11.701 25.3967 
5270 330 2 12.01 0.11 12.6257 14.6221 3.68486 61.8081 -34.5603 -45.4975 1 -1 -1 -0.00304816 -0.00378716 -0.00254018 25.7189 -26.3499 -13.5473 
5280 330 3 1.008 0.03 13.5464 14.7589 3.13051 62.7287 -34.4235 -46.0518 1 -1 -1 -0.00101245 0.00571172 0.00711478 4.24297 -1.43935 -2.51932 
3154 198 1 16 -0.4 13.7355 10.1716 2.39158 112.1 10.1716 51.5739 2 0 1 -0.00464835 0.0036422 0.00243284 1.81511 18.0707 -9.69331 
3156 198 2 12.01 0.14 14.9188 9.49865 2.75044 113.284 9.49865 51.9328 2 0 1 0.00864826 -0.000820869 0.00455301 4.41712 30.3156 58.8492 
10155 638 5 32.06 1.02 16.7556 13.8178 5.5975 16.7556 13.8178 54.7798 0 0 1 -0.0032569 -0.000118705 0.003069 48.9829 -37.2414 45.4684 
5266 330 1 16 -0.4 11.6328 15.2707 2.98665 60.8152 -33.9116 -46.1957 1 -1 -1 0.000661473 0.00141048 -0.00250235 -23.2877 5.65607 -20.0484 
5279 330 3 1.008 0.03 12.4776 13.54 3.79163 61.6599 -35.6423 -45.3907 1 -1 -1 -0.00150219 0.00992397 -0.00384921 -4.99508 6.47335 -4.08079 
3812 239 2 12.01 0.14 12.3138 11.6347 6.18593 12.3138 60.8171 55.3683 0 1 1 0.00690439 0.0081242 -0.0113749 -18.4695 16.0828 10.9326 
3816 239 3 1.008 0.03 10.6929 11.6938 4.76303 10.6929 60.8761 53.9454 0 1 1 -0.00812217 0.0243233 -0.00316876 -15.3506 -0.281691 9.75877 
3811 239 2 12.01 0.14 11.3947 10.9662 5.14747 11.3947 60.1485 54.3298 0 1 1 0.00834946 0.00433388 0.00499759 -20.6179 -26.454 22.5016 
3815 239 3 1.008 0.03 11.9105 10.8108 4.25129 11.9105 59.9931 53.4336 0 1 1 0.00713053 0.0213252 0.00358433 22.3372 -14.4274 -20.1125 
5274 330 3 1.008 0.03 10.2309 14.6166 4.33612 59.4133 -34.5657 -44.8462 1 -1 -1 0.0333528 0.00643147 -0.0265917 3.71755 -0.2444 12.631 
5268 330 2 12.01 0.14 10.5326 15.5235 3.82279 59.7149 -33.6588 -45.3596 1 -1 -1 -0.00623289 -0.00920578 -0.0004464 -1.25364 9.90441 -5.16954 
5273 330 3 1.008 0.03 10.9483 16.3275 4.45999 60.1307 -32.8549 -44.7224 1 -1 -1 0.00514249 -0.0301483 0.022899 -14.8968 -14.3454 0.412709 
3818 239 3 1.008 0.03 12.7173 12.5637 5.74019 12.7173 61.746 54.9225 0 1 1 -0.00127174 -0.010924 0.0162032 0.087191 -13.2705 2.98928 
10156 638 6 16 -0.53 16.3062 13.8703 4.25375 16.3062 13.8703 53.4361 0 0 1 -0.00267659 -0.00355418 0.000974432 -1.73386 10.34 -34.6339 
3167 198 3 1.008 0.03 13.0134 11.8577 1.66989 111.378 11.8577 50.8522 2 0 1 -0.00248442 0.0167101 -0.0142793 -5.65124 18.232 -6.27454 
3817 239 3 1.008 0.03 13.18 10.9956 6.43401 13.18 60.178 55.6164 0 1 1 0.0280563 0.00566783 -0.00838039 -10.3928 3.98489 4.5816 
10157 638 6 16 -0.53 15.8879 13.2368 6.58111 15.8879 13.2368 55.7635 0 0 1 0.00744241 0.0025401 -0.000436974 -9.93783 -0.419112 6.93204 
3810 239 1 16 -0.4 11.4741 12.0742 7.30868 11.4741 61.2565 56.491 0 1 1 0.000810302 0.00235643 -0.0061862 26.1175 -15.3733 -28.9733 
3166 198 3 1.008 0.03 14.3982 11.1098 0.759623 112.763 11.1098 49.942 2 0 1 0.00841582 0.016089 0.00469128 -7.12273 16.8626 6.93935 
4956 310 3 1.008 0.03 16.1905 16.7153 4.23377 65.3728 16.7153 4.23377 1 0 0 -0.0240014 -0.0131085 -0.00105501 -6.65669 6.07389 14.3694 
4491 281 3 1.008 0.03 9.27838 13.3695 0.455533 107.643 -35.8129 148.003 2 -1 3 -0.0083814 -0.00546819 -0.00351139 21.4763 11.2502 4.73067 
4492 281 3 1.008 0.03 11.1257 13.8416 0.6682 109.49 -35.3407 148.215 2 -1 3 -0.00987065 -0.00160809 -0.00453647 -36.0735 -0.0373915 -7.40895 
6333 396 3 1.008 0.03 14.4446 15.7375 0.417422 -133.102 163.285 -48.7649 -3 3 -1 0.013757 0.0152997 0.00360801 -19.523 5.25634 -0.504816 
1229 77 3 1.008 0.03 23.7524 9.46658 4.71533 23.7524 58.6489 4.71533 0 1 0 -0.0142696 -0.0230488 0.0126776 -4.36483 -13.2467 -5.27582 
4685 293 3 1.008 0.03 22.9143 14.769 0.584128 -26.268 63.9513 49.7665 -1 1 1 -0.0136512 0.0135967 -0.00257474 13.2873 -38.2753 17.817 
1228 77 3 1.008 0.03 24.159 10.4611 5.9803 24.159 59.6434 5.9803 0 1 0 -0.00881562 -0.00444443 -0.0172668 -7.95725 25.8809 20.8759 
4673 293 1 16 -0.4 21.0646 15.7269 0.554211 -28.1178 64.9093 49.7366 -1 1 1 0.00444593 -0.000385918 -0.000862374 -13.16 -22.187 -5.69154 
10148 638 5 32.06 1.02 17.378 16.1651 7.02158 17.378 16.1651 56.2039 0 0 1 -0.00205243 -0.00459616 0.00243319 59.4319 16.2569 -21.5597 
10147 638 4 14.01 -0.66 17.7082 14.9491 6.10311 17.7082 14.9491 55.2855 0 0 1 0.00280307 -0.00529154 0.00225764 -27.8421 27.6516 -22.2123 
2938 184 3 1.008 0.03 19.3571 9.93979 6.02374 -79.0076 59.1221 -43.1586 -2 1 -1 -0.0109997 0.0140366 -0.0278469 -2.44518 1.27921 4.75877 
2943 184 3 1.008 0.03 20.2196 8.74831 3.47831 -78.1451 57.9307 -45.704 -2 1 -1 -0.0350615 -0.0230051 0.00682485 10.3058 17.3465 16.7299 
1227 77 3 1.008 0.03 24.8225 8.89984 6.05139 24.8225 58.0822 6.05139 0 1 0 0.00522141 -0.000863016 -2.52124e-05 2.36317 -4.95533 2.82332 
10160 638 8 19 -0.16 18.7646 12.4909 6.77035 18.7646 12.4909 55.9527 0 0 1 0.00349731 -0.00524521 0.00606763 -4.38722 -4.58576 -9.05305 
2932 184 2 12.01 0.14 19.8656 8.9916 6.17968 -78.4991 58.1739 -43.0027 -2 1 -1 0.00351244 0.00259026 -0.00113761 26 6.77354 7.69595 