ITEM: TIMESTEP
2500000
ITEM: NUMBER OF ATOMS
10479
ITEM: BOX BOUNDS pp pp pp
4.0882558190751794e-01 4.9591174418091420e+01
4.0882558190751794e-01 4.9591174418091420e+01
4.0882558190751794e-01 4.9591174418091420e+01
ITEM: ATOMS id mol type mass q x y z xu yu zu ix iy iz vx vy vz fx fy fz 
2252 141 3 1.008 0.03 3.56896 5.88802 3.75892 3.56896 5.88802 52.9413 0 0 1 0.0307854 -0.0151557 0.0216462 -4.17743 2.79676 -13.8479 
2245 141 2 12.01 0.11 3.20801 5.26318 4.5507 3.20801 5.26318 53.733 0 0 1 0.00154162 0.00718913 -0.0096962 -10.3265 36.3998 34.6929 
2253 141 3 1.008 0.03 2.81235 4.37596 4.20795 2.81235 4.37596 53.3903 0 0 1 -0.00844026 0.00495761 0.00122849 -20.4057 -23.1467 -16.2769 
2241 141 1 16 -0.4 4.32097 4.97707 5.33578 4.32097 4.97707 54.5181 0 0 1 0.00382696 -0.00117938 0.00219378 30.2536 3.72366 -0.42092 
2251 141 3 1.008 0.03 2.42346 5.80779 5.14201 2.42346 5.80779 54.3244 0 0 1 0.036233 -0.00119496 0.00342523 15.9945 -6.82384 -16.7308 
10127 636 6 16 -0.53 6.64385 7.10738 5.87791 6.64385 7.10738 55.0603 0 0 1 -0.00168969 0.000277375 0.000175274 -10.6489 -15.3846 19.6097 
975 61 3 1.008 0.03 6.52172 5.46667 3.90659 6.52172 5.46667 53.0889 0 0 1 0.0234226 -0.005512 -0.00160792 -6.89751 1.63305 -3.75464 
2255 141 3 1.008 0.03 6.34337 2.62219 6.7856 6.34337 2.62219 55.9679 0 0 1 0.0249927 -0.0198467 0.0168814 7.38604 5.10373 15.2187 
10130 636 8 19 -0.16 4.33747 7.94793 3.78102 4.33747 7.94793 52.9634 0 0 1 -0.00196229 0.00149249 -0.00204333 -56.1367 -10.3241 -12.1735 
974 61 3 1.008 0.03 6.43374 3.64819 3.91499 6.43374 3.64819 53.0973 0 0 1 0.00435421 -0.03427 -0.0291646 13.7843 25.3804 7.31552 
966 61 2 12.01 0.11 7.10701 4.55979 3.94996 7.10701 4.55979 53.1323 0 0 1 -0.00355817 -0.00260794 -0.00345674 -18.4643 -31.2301 10.7116 
2174 136 3 1.008 0.03 4.08608 2.77173 3.71814 102.451 2.77173 3.71814 2 0 0 0.0203499 0.00999405 0.021399 -9.24033 -31.2237 -1.61778 
2162 136 1 16 -0.4 3.00562 1.30498 4.83228 101.37 1.30498 4.83228 2 0 0 0.0054794 0.00467558 -0.00143574 14.9867 -9.29445 -2.48696 
976 61 3 1.008 0.03 7.65829 4.47596 3.03587 7.65829 4.47596 52.2182 0 0 1 0.00163655 -0.00931652 2.5383e-05 9.60371 6.54532 -12.0122 
2166 136 2 12.01 0.11 3.3448 1.92565 3.59946 101.71 1.92565 3.59946 2 0 0 -0.00395872 -0.00222875 -0.00467343 -17.9078 58.4975 16.0271 
2175 136 3 1.008 0.03 3.63237 1.30186 2.79577 101.997 1.30186 2.79577 2 0 0 -0.016612 -0.00480264 0.00779202 5.46537 -18.744 -13.6492 
1024 64 3 1.008 0.03 6.6874 6.75928 1.06467 55.8697 -91.6054 99.4294 1 -2 2 0.0141546 0.00138457 -4.87269e-05 -12.0952 26.3857 36.5539 
2176 136 3 1.008 0.03 2.40883 2.47793 3.30982 100.774 2.47793 3.30982 2 0 0 -0.0290648 -0.00352978 -0.00741618 18.7757 -17.8559 -1.76323 
1018 64 3 1.008 0.03 4.40708 6.13616 1.57139 53.5894 -92.2285 99.9361 1 -2 2 0.0175368 0.0115368 0.0135497 -3.04262 4.36264 16.4933 
8366 523 3 1.008 0.03 0.672741 0.75723 1.78558 99.0374 0.75723 100.15 2 0 2 0.0225262 0.0380353 -0.013125 -7.95988 15.7496 -6.91642 
10125 636 5 32.06 1.02 5.90305 8.35461 5.8198 5.90305 8.35461 55.0022 0 0 1 -0.00403186 -0.00104403 -0.00347888 -38.2947 73.7132 11.2026 
10128 636 7 12.01 0.35 5.41561 8.52796 4.07606 5.41561 8.52796 53.2584 0 0 1 0.000409684 0.00141999 0.00355439 72.1109 -48.6006 43.2496 
10129 636 8 19 -0.16 6.32729 7.93749 3.34592 6.32729 7.93749 52.5283 0 0 1 -0.00745852 -0.00148465 -0.0040786 9.12972 0.111876 -13.8558 
3785 237 3 1.008 0.03 0.920128 8.15656 5.67297 0.920128 57.3389 5.67297 0 1 0 -0.00870246 0.00231029 0.0231718 -2.16429 13.6613 13.6562 
10126 636 6 16 -0.53 4.62649 8.57275 6.53614 4.62649 8.57275 55.7185 0 0 1 -0.00194498 0.00078508 -0.00335654 43.72 -36.4145 -17.0807 
6622 414 3 1.008 0.03 6.38862 1.0694 1.88655 6.38862 -48.1129 51.0689 0 -1 1 0.0193775 0.00272048 0.013299 25.0333 -2.81235 16.2011 
6615 414 3 1.008 0.03 7.89979 0.688807 6.43424 7.89979 -48.4935 55.6166 0 -1 1 -0.00472912 0.0174312 -0.0325955 -12.69 -17.2618 -1.49533 
1009 64 1 16 -0.4 2.92846 4.10182 0.597129 52.1108 -94.2629 98.9618 1 -2 2 0.00877187 -0.00196727 0.00638083 -22.9904 -17.9834 -2.2878 
962 61 1 16 -0.4 7.95061 4.58129 5.1146 7.95061 4.58129 54.2969 0 0 1 -0.00089629 -0.00101633 -0.000297588 2.49007 -14.5433 -14.3327 
970 61 3 1.008 0.03 8.47891 2.53436 4.90515 8.47891 2.53436 54.0875 0 0 1 -0.010354 -0.0136384 -0.0224302 6.79793 23.1417 -6.34264 
4496 281 3 1.008 0.03 0.681872 5.49328 6.50042 99.0466 -43.6891 154.047 2 -1 3 -0.011099 0.0151927 -0.022722 5.28364 0.187593 -23.4196 
10461 672 9 24.305 2 7.85766 5.66877 6.67952 7.85766 5.66877 55.8619 0 0 1 -0.00154397 -0.000930795 0.00228998 2.23074 -1.50108 -15.7945 
6610 414 1 16 -0.4 7.10283 0.571743 3.87241 7.10283 -48.6106 53.0548 0 -1 1 -0.00175141 0.00359067 0.00431643 14.4599 -5.87742 -27.3752 
4735 296 3 1.008 0.03 0.544307 0.516518 4.54039 49.7267 49.6989 4.54039 1 1 0 0.0275982 -0.00383752 0.0221266 33.12 1.98579 -37.6023 
2248 141 3 1.008 0.03 4.02753 3.21474 6.58767 4.02753 3.21474 55.77 0 0 1 0.0361293 0.0240237 0.00731378 4.62387 32.1047 -11.9628 
3567 223 3 1.008 0.03 0.546291 5.54735 2.16127 -97.8184 -43.635 2.16127 -2 -1 0 -0.0208754 0.0250182 0.00354389 -7.85659 -6.19766 20.1292 
1012 64 2 12.01 0.14 4.33272 6.14771 0.507583 53.5151 -92.217 98.8723 1 -2 2 -0.0077042 9.51985e-05 0.00546141 -5.80735 0.962535 -12.9634 
6614 414 2 12.01 0.11 7.26789 0.600223 2.42334 7.26789 -48.5821 51.6057 0 -1 1 0.00594061 0.00340309 -0.000840743 -23.8853 8.70364 11.7515 
2169 136 3 1.008 0.03 5.02909 0.81546 5.23561 103.394 0.81546 5.23561 2 0 0 0.0316821 -0.0286125 0.00992121 -22.3651 -8.39833 6.82504 
2247 141 3 1.008 0.03 3.01063 4.62592 6.84734 3.01063 4.62592 56.0297 0 0 1 0.032996 -0.0214244 -0.0217064 13.9369 -4.61468 0.763864 
6623 414 3 1.008 0.03 8.23454 1.06853 2.20104 8.23454 -48.1138 51.3834 0 -1 1 -0.0154002 -0.00985732 -0.000814206 -8.26272 5.0022 -7.0283 
2243 141 2 12.01 0.14 4.04733 4.35245 6.55599 4.04733 4.35245 55.7383 0 0 1 -0.00571708 -0.00163703 -0.00356826 -40.9604 -39.7382 20.6125 
2242 141 1 16 -0.4 6.28179 4.527 7.40913 6.28179 4.527 56.5915 0 0 1 -0.00165354 -0.00304081 -0.00410236 44.7752 64.9641 -18.5779 
2103 132 3 1.008 0.03 13.7399 0.802851 5.80204 -35.4424 -97.5618 54.9844 -1 -2 1 0.00523223 -0.0134031 -0.0152655 26.3293 7.93995 10.7165 
2105 132 3 1.008 0.03 13.5475 0.818403 3.45299 -35.6349 -97.5463 52.6353 -1 -2 1 0.0111467 0.0216074 -0.0124721 4.64397 -7.5832 -2.45184 
6617 414 3 1.008 0.03 9.15433 0.461389 4.30058 9.15433 -48.721 53.4829 0 -1 1 -0.00476437 -0.0287298 -0.0120816 -18.4608 -10.242 -3.96195 
9637 604 4 14.01 -0.66 11.5058 8.20468 1.11846 11.5058 57.387 1.11846 0 1 0 0.00150217 -0.00165454 0.00279459 19.0307 -21.3196 -6.03397 
964 61 2 12.01 0.14 8.9565 3.54966 4.93636 8.9565 3.54966 54.1187 0 0 1 -0.00273038 -0.00011913 -0.00795256 -37.2175 -14.5773 6.18153 
969 61 3 1.008 0.03 9.49864 3.7118 4.04469 9.49864 3.7118 53.227 0 0 1 -0.0194803 0.0111631 0.00481544 12.5044 1.51064 -21.5676 
2102 132 2 12.01 0.11 11.782 2.26232 2.43949 -37.4003 -96.1024 51.6218 -1 -2 1 0.000738862 -0.00510574 -0.00157391 -30.7452 5.31183 35.5892 
2098 132 1 16 -0.4 12.025 2.08703 3.86666 -37.1574 -96.2777 53.049 -1 -2 1 -0.000692351 -0.00347585 -0.0106029 -19.3341 14.1289 -38.5742 
967 61 3 1.008 0.03 10.9211 3.57521 5.76268 10.9211 3.57521 54.945 0 0 1 0.00592487 -0.0195953 0.00307114 14.5168 -0.286754 -4.12646 
963 61 2 12.01 0.14 9.89993 3.54489 6.08217 9.89993 3.54489 55.2645 0 0 1 0.00364894 0.000368089 0.00333318 -20.3294 1.16454 10.7805 
968 61 3 1.008 0.03 9.69418 2.5895 6.58589 9.69418 2.5895 55.7682 0 0 1 -0.0131557 0.0448612 0.00330712 8.13449 6.23171 4.33094 
7922 496 1 16 -0.4 9.2962 6.96169 6.17849 9.2962 6.96169 55.3608 0 0 1 -0.00192891 0.00442194 -0.00304975 -0.597005 23.6088 -15.773 
7935 496 3 1.008 0.03 9.13216 6.62859 4.04913 9.13216 6.62859 53.2315 0 0 1 0.0229529 -0.00204105 0.00382251 23.0355 10.7261 24.2304 
2110 132 3 1.008 0.03 11.0162 1.53205 2.06205 -38.1661 -96.8327 51.2444 -1 -2 1 0.0117553 0.00993512 -0.0132322 22.5649 8.20438 3.25517 
4015 251 3 1.008 0.03 12.6552 6.43141 5.85525 61.8376 55.6138 153.402 1 1 3 -0.0213238 -0.0129027 -0.000771037 8.16305 -0.403719 -7.62195 
7934 496 3 1.008 0.03 10.7753 7.1732 4.58311 10.7753 7.1732 53.7655 0 0 1 0.00153534 -0.011421 0.00957385 12.6531 -8.50809 5.32873 
7926 496 2 12.01 0.11 9.72655 7.24941 4.79625 9.72655 7.24941 53.9786 0 0 1 0.00347313 -0.00426008 -0.00190242 -43.5259 6.46441 -16.5897 
9640 604 6 16 -0.53 13.2032 6.32182 1.64272 13.2032 55.5042 1.64272 0 1 0 0.00272609 -0.00249757 -0.000808143 10.3922 -6.01372 -5.80434 
9647 604 6 16 -0.53 10.2024 5.94798 1.33133 10.2024 55.1303 1.33133 0 1 0 0.00247842 -0.00656436 0.00890217 5.70032 62.36 -33.1734 
2112 132 3 1.008 0.03 12.7668 2.16795 2.0391 -36.4155 -96.1968 51.2214 -1 -2 1 0.0146747 0.0172601 -0.0170485 6.82605 1.6576 -28.7842 
2111 132 3 1.008 0.03 11.3569 3.24537 2.18462 -37.8254 -95.1193 51.367 -1 -2 1 -0.000530875 0.00857537 0.0206999 8.64543 -2.81876 6.18562 
9638 604 5 32.06 1.02 12.9239 7.73067 1.62715 12.9239 56.913 1.62715 0 1 0 -0.00544101 -0.00109662 0.00222345 -19.7578 49.2522 16.5125 
9645 604 5 32.06 1.02 10.2871 7.31644 0.720705 10.2871 56.4988 0.720705 0 1 0 -0.000380759 0.00227481 0.000467164 -21.7777 -50.9202 31.9239 
5257 329 3 1.008 0.03 14.0131 3.59415 4.78659 -35.1693 52.7765 4.78659 -1 1 0 0.026091 -0.0119552 -0.00693777 -20.825 5.04669 -0.971395 
5255 329 3 1.008 0.03 15.6441 5.03817 3.35961 -33.5382 54.2205 3.35961 -1 1 0 -0.0111019 0.0034622 -0.0138321 7.83315 -10.1372 -9.90149 
2097 132 1 16 -0.4 11.7206 0.986296 6.20201 -37.4618 -97.3784 55.3844 -1 -2 1 -0.00132583 0.00301709 0.00148714 17.3969 -22.6598 8.77896 
9646 604 6 16 -0.53 9.06953 8.11193 0.769752 9.06953 57.2943 0.769752 0 1 0 -0.00444442 -0.00447729 -0.00186955 13.357 -9.42917 -5.04342 
4006 251 2 12.01 0.11 13.3703 6.05875 6.58807 62.5527 55.2411 154.135 1 1 3 -0.00248555 0.00375204 -0.00769395 -18.9618 4.5012 15.2617 
4016 251 3 1.008 0.03 14.4008 6.33137 6.33764 63.5832 55.5137 153.885 1 1 3 0.00848197 0.00531977 0.0073184 -3.74705 1.12215 1.31735 
2100 132 2 12.01 0.14 12.5927 0.82253 3.96732 -36.5897 -97.5422 53.1497 -1 -2 1 0.00907002 -0.00262712 -0.00116618 25.8786 -14.1222 41.706 
5250 329 1 16 -0.4 15.5785 4.212 5.90663 -33.6038 53.3944 5.90663 -1 1 0 -0.00107732 0.00316247 -0.0014675 14.0009 3.33705 -24.8592 
5256 329 3 1.008 0.03 14.7423 3.70429 2.62583 -34.44 52.8866 2.62583 -1 1 0 -0.0121184 0.00249028 -0.00768018 3.7201 0.847937 -4.23826 
5252 329 2 12.01 0.14 15.0696 3.54369 4.73463 -34.1127 52.726 4.73463 -1 1 0 -0.00362475 0.00853358 -0.00537949 21.9151 -22.319 -6.78347 
5258 329 3 1.008 0.03 15.2861 2.47872 4.78403 -33.8963 51.6611 4.78403 -1 1 0 0.00114177 -0.00549223 -0.00334276 -2.37764 -2.30643 8.04635 
5251 329 2 12.01 0.14 15.5625 3.93655 3.30804 -33.6199 53.1189 3.30804 -1 1 0 -0.00667281 -0.00100139 -0.00354545 -11.6843 14.8421 25.9115 
5249 329 1 16 -0.4 16.736 3.20087 2.91534 -32.4464 52.3832 2.91534 -1 1 0 -0.00191708 -0.000268273 -0.00643989 -10.4378 13.7269 0.609028 
5260 329 3 1.008 0.03 16.7333 3.84655 0.854206 -32.4491 53.0289 0.854206 -1 1 0 -0.00275035 0.0131324 0.0201496 -19.9157 -9.6639 -9.73841 
2099 132 2 12.01 0.14 12.8331 0.421805 5.44234 -36.3492 -97.9429 54.6247 -1 -2 1 -0.00509899 -0.0020205 -0.00176402 -63.3961 -22.7753 2.83346 
7936 496 3 1.008 0.03 9.47564 8.26981 4.42692 9.47564 8.26981 53.6093 0 0 1 0.00491179 -0.0125544 0.0259593 0.417577 -10.709 15.7998 
9639 604 6 16 -0.53 13.2 8.52169 2.81149 13.2 57.704 2.81149 0 1 0 -0.000447572 -0.00335656 0.00172386 15.1897 -14.6352 1.9384 
961 61 1 16 -0.4 9.53594 4.67819 6.87332 9.53594 4.67819 56.0557 0 0 1 0.00049862 0.00182986 -0.000367014 13.9958 -32.2801 14.0701 
9642 604 8 19 -0.16 15.3463 8.22225 0.439961 15.3463 57.4046 0.439961 0 1 0 0.00645206 -0.000412693 -0.00206204 -15.7429 -7.11497 11.3969 
7924 496 2 12.01 0.14 9.57698 8.04037 7.11294 9.57698 8.04037 56.2953 0 0 1 -0.00362258 0.00464311 -0.00180924 -2.87028 20.7581 -76.0169 
7930 496 3 1.008 0.03 10.6748 8.1988 7.03931 10.6748 8.1988 56.2217 0 0 1 -0.000613078 -0.0191773 -0.0361538 -12.675 1.37004 20.3926 
4014 251 3 1.008 0.03 13.2243 4.98608 6.64914 62.4066 54.1684 154.196 1 1 3 0.0131432 0.0132617 -0.0166886 6.70451 -4.94345 -5.39988 
312 20 3 1.008 0.03 22.9729 8.46583 6.83905 -26.2094 -139.081 105.204 -1 -3 2 0.0215773 0.0407906 0.0106487 3.32808 -5.64304 5.44885 
10475 686 9 24.305 2 22.4984 0.657339 1.83026 22.4984 49.8397 1.83026 0 1 0 0.00485648 0.00204255 0.00250026 -22.44 -8.25606 -21.1444 
8274 518 1 16 -0.4 20.9273 0.796115 3.08332 20.9273 49.9785 3.08332 0 1 0 -0.000238073 -0.00216321 0.00534661 11.809 -6.50296 10.4529 
5269 330 2 12.01 0.11 21.2423 2.8197 7.12976 70.4246 -46.3627 -42.0526 1 -1 -1 -0.0030203 0.00847319 -0.00469843 24.1954 -1.52449 14.4665 
5278 330 3 1.008 0.03 23.2349 6.86952 3.65927 72.4173 -42.3128 -45.5231 1 -1 -1 -0.0172136 0.0146903 0.0042652 -10.9132 -0.532175 -18.9132 
5264 329 3 1.008 0.03 17.114 2.936 6.11842 -32.0683 52.1183 6.11842 -1 1 0 0.0158285 0.0140426 -0.00875105 12.3743 37.3949 -3.43009 
5254 329 2 12.01 0.11 16.9923 4.06809 6.01172 -32.19 53.2504 6.01172 -1 1 0 0.0031008 0.00171518 0.00869038 -43.2327 -58.5328 20.9794 
5262 329 3 1.008 0.03 17.5183 4.4916 5.22819 -31.6641 53.6739 5.22819 -1 1 0 -0.00350299 0.00289803 0.0117872 18.0533 8.79391 -33.5915 
2370 149 1 16 -0.4 23.7427 1.01025 3.15912 23.7427 50.1926 3.15912 0 1 0 0.00411625 0.00127313 -0.00223885 11.8681 27.3922 40.0842 
5268 330 2 12.01 0.14 21.8232 6.05728 5.46369 71.0055 -43.1251 -43.7187 1 -1 -1 -0.00739811 0.000498232 -0.0031331 -7.62033 -19.4408 -17.7233 
8281 518 3 1.008 0.03 20.4778 2.32371 4.45585 20.4778 51.5061 4.45585 0 1 0 0.0242139 0.00645597 0.01063 -12.6879 -4.81193 -11.7296 
8280 518 3 1.008 0.03 20.8372 4.00882 2.5401 20.8372 53.1912 2.5401 0 1 0 0.00526699 0.0104951 0.0128297 -9.43322 7.44735 -2.82776 
8279 518 3 1.008 0.03 22.1139 3.51893 3.56926 22.1139 52.7013 3.56926 0 1 0 0.00193777 -0.00164107 -0.0259843 -5.19053 -9.16325 -5.24668 
8275 518 2 12.01 0.14 21.3983 3.13579 2.81961 21.3983 52.3181 2.81961 0 1 0 0.00461986 0.00498463 -0.00468921 36.0895 33.9233 -13.9224 
8273 518 1 16 -0.4 22.1194 2.66568 1.67885 22.1194 51.848 1.67885 0 1 0 -0.000424307 -0.00362847 0.00146811 6.72962 -30.5623 16.6991 
8282 518 3 1.008 0.03 19.5291 2.24336 2.92688 19.5291 51.4257 2.92688 0 1 0 -0.0170234 0.016148 0.0203839 -24.1037 4.77172 -2.99724 
8276 518 2 12.01 0.14 20.4804 2.1244 3.36786 20.4804 51.3067 3.36786 0 1 0 -0.00864722 -0.00375614 -0.00500711 14.8738 -17.3159 22.7037 
5266 330 1 16 -0.4 21.4772 5.95193 4.05599 70.6595 -43.2304 -45.1264 1 -1 -1 -0.0014317 -0.00120707 -0.00324854 -2.94764 -1.26631 21.3543 
2374 149 2 12.01 0.11 23.6183 1.38562 4.55583 23.6183 50.568 4.55583 0 1 0 0.00221278 0.00595611 0.00304108 14.1145 -65.2681 0.694818 
5267 330 2 12.01 0.14 21.0239 4.99603 6.2211 70.2063 -44.1863 -42.9613 1 -1 -1 -0.00204805 -0.00168397 0.00868971 -39.276 -14.2438 -36.7829 
5271 330 3 1.008 0.03 19.8867 5.0922 6.05132 69.0691 -44.0901 -43.131 1 -1 -1 0.0161961 0.000290123 -0.0186549 43.2826 -13.1355 -3.80645 
8285 518 3 1.008 0.03 23.5622 4.17274 1.62841 23.5622 53.3551 1.62841 0 1 0 0.0328392 0.00417246 0.0199253 6.98649 9.29722 11.3927 
5253 329 2 12.01 0.11 17.3029 3.78716 1.75106 -31.8795 52.9695 1.75106 -1 1 0 -0.00138792 -0.00252705 -0.00487513 12.273 33.1849 15.4125 
8277 518 2 12.01 0.11 22.8358 3.68659 1.01451 22.8358 52.8689 1.01451 0 1 0 -0.00229896 -0.0053301 -0.00065976 -29.9306 11.9319 -6.62901 
5280 330 3 1.008 0.03 21.8155 7.90038 3.4361 70.9978 -41.282 -45.7462 1 -1 -1 0.00405626 0.0139618 -0.0366659 4.22054 -20.3624 -10.2179 
5273 330 3 1.008 0.03 21.4704 7.02598 5.91307 70.6527 -42.1564 -43.2693 1 -1 -1 -0.00421353 -0.0147987 -0.018156 23.0316 -14.0917 -13.7126 
5259 329 3 1.008 0.03 18.2272 3.32226 1.49396 -30.9551 52.5046 1.49396 -1 1 0 0.00564733 -0.0189872 -0.00517071 11.4304 -8.86364 -2.63658 
5261 329 3 1.008 0.03 17.5456 4.85262 1.95081 -31.6368 54.035 1.95081 -1 1 0 0.00233153 0.0241393 0.000499875 -0.201726 -14.2156 0.921349 
5279 330 3 1.008 0.03 22.1726 6.57024 2.15237 71.3549 -42.6121 -47.03 1 -1 -1 -0.000470027 -0.0127807 0.0259521 0.611109 10.939 31.8599 
5270 330 2 12.01 0.11 22.1943 6.85905 3.25442 71.3767 -42.3233 -45.9279 1 -1 -1 -0.00596695 -0.000359532 -0.00166718 15.4049 18.0907 -3.165 
5274 330 3 1.008 0.03 22.8988 5.72643 5.57255 72.0811 -43.4559 -43.6098 1 -1 -1 0.0220333 0.0253786 -0.00127727 -21.0796 25.669 4.40534 
5265 330 1 16 -0.4 21.6382 3.68137 6.08717 70.8206 -45.501 -43.0952 1 -1 -1 0.00452844 0.00320314 0.00231137 -10.878 27.3437 1.22073 
2384 149 3 1.008 0.03 24.09 2.30412 4.78084 24.09 51.4865 4.78084 0 1 0 0.0123231 0.0271217 0.00498072 -0.243729 26.1243 8.75096 
5263 329 3 1.008 0.03 17.3096 4.58195 6.87586 -31.8727 53.7643 6.87586 -1 1 0 0.0328204 -0.0270634 0.012616 8.59429 6.0994 23.0098 
5275 330 3 1.008 0.03 21.9507 1.97596 7.14607 71.133 -47.2064 -42.0363 1 -1 -1 0.00458155 0.000233511 0.0115015 -14.6253 4.16879 -1.89618 
8284 518 3 1.008 0.03 22.0914 4.39222 0.613418 22.0914 53.5746 0.613418 0 1 0 -0.0112605 -0.00595391 -0.00649932 8.80527 2.29736 5.78618 
2382 149 3 1.008 0.03 22.6575 1.21345 5.0423 22.6575 50.3958 5.0423 0 1 0 0.0123751 -0.0100409 0.00067487 -4.6985 11.084 -8.56012 
2369 149 1 16 -0.4 24.1425 0.568735 0.819904 24.1425 49.7511 0.819904 0 1 0 0.00134669 -0.00581539 -0.00666758 -36.2421 25.5063 -28.5192 
5272 330 3 1.008 0.03 21.0674 5.27723 7.20519 70.2497 -43.9051 -41.9772 1 -1 -1 -0.00820836 0.00204746 -0.00952509 7.98675 10.5955 44.4311 
2056 129 3 1.008 0.03 17.3511 0.747334 7.26116 66.5334 49.9297 56.4435 1 1 1 0.00869053 -0.0034628 -0.00310876 -16.8547 -4.24616 6.2592 
5277 330 3 1.008 0.03 20.2349 2.51391 7.03428 69.4173 -46.6684 -42.1481 1 -1 -1 -0.0162773 2.42118e-07 0.0115821 -19.6399 -12.2035 -7.73369 
2383 149 3 1.008 0.03 24.2214 0.609786 5.09795 24.2214 49.7921 5.09795 0 1 0 0.0166543 -0.0151703 0.00486557 -10.6877 18.1809 -5.00543 
3786 237 3 1.008 0.03 0.572 8.82274 7.32197 0.572 58.0051 7.32197 0 1 0 -0.000805917 0.000770411 -0.00323346 1.62181 -13.7114 15.4539 
3783 237 3 1.008 0.03 1.99368 10.1282 5.09719 1.99368 59.3105 5.09719 0 1 0 0.00542053 -0.000116405 -0.0171697 1.51584 7.18839 3.05833 
4104 257 3 1.008 0.03 3.71358 14.3773 0.610625 3.71358 14.3773 -97.7541 0 0 -2 0.0207498 -0.00243169 0.0181872 15.7831 -33.6408 -10.1352 
3784 237 3 1.008 0.03 2.45157 10.2309 6.73153 2.45157 59.4133 6.73153 0 1 0 -0.0307437 0.0295843 -0.00503523 23.2631 -9.29652 24.407 
2430 152 3 1.008 0.03 6.33635 13.717 3.01805 -141.211 62.8993 101.383 -3 1 2 -0.00835806 -0.0112371 -0.00917455 4.61224 -0.373375 -16.9761 
2432 152 3 1.008 0.03 6.24222 14.6519 1.46036 -141.305 63.8342 99.8251 -3 1 2 -0.0132424 0.00467261 0.00947363 34.4191 -29.7744 25.2362 
2422 152 2 12.01 0.11 6.83869 13.8341 2.03027 -140.708 63.0165 100.395 -3 1 2 0.00818983 5.15846e-05 -0.00504318 -70.7702 13.416 -18.0947 
10121 636 7 12.01 0.35 7.71529 12.059 5.67055 7.71529 12.059 54.8529 0 0 1 0.00316322 -0.00544118 0.00175891 -11.1356 4.51387 10.7582 
3779 237 2 12.01 0.14 1.60939 10.2563 6.11642 1.60939 59.4386 6.11642 0 1 0 -0.00386195 0.0019372 0.00242704 -30.4536 -31.29 -39.1163 
10131 636 8 19 -0.16 5.41879 9.74027 3.76846 5.41879 9.74027 52.9508 0 0 1 0.00604194 0.00166094 0.000901345 -17.5357 58.683 -29.2846 
3777 237 1 16 -0.4 0.961021 11.5094 6.21395 0.961021 60.6917 6.21395 0 1 0 0.00305278 -0.00659941 0.00141509 -5.34696 14.4171 -2.8553 
3781 237 2 12.01 0.11 1.96302 12.5631 6.16318 1.96302 61.7455 6.16318 0 1 0 -0.00519237 -0.00775835 -0.00188458 -11.5948 5.33577 3.52278 
3789 237 3 1.008 0.03 2.43963 12.7271 7.14604 2.43963 61.9094 7.14604 0 1 0 -0.0333068 0.0223206 0.0319842 -6.02524 -5.61064 -8.89675 
3788 237 3 1.008 0.03 1.54739 13.511 5.79516 1.54739 62.6934 5.79516 0 1 0 0.0264285 -0.00529638 0.00124262 -3.22231 -4.96171 8.59809 
3787 237 3 1.008 0.03 2.7492 12.395 5.44803 2.7492 61.5773 5.44803 0 1 0 0.000345432 -0.00522323 -0.00767671 6.91718 -8.81945 -6.46429 
10124 636 8 19 -0.16 7.7159 13.2772 6.21726 7.7159 13.2772 55.3996 0 0 1 0.00141293 0.00319882 -0.00595583 -2.95831 -4.48558 -10.8877 
2431 152 3 1.008 0.03 7.8165 14.128 2.26963 -139.731 63.3104 100.634 -3 1 2 0.00656955 0.00332521 -0.00618566 28.9374 7.23786 -1.39676 
2418 152 1 16 -0.4 6.7029 12.6292 1.26091 -140.844 61.8116 99.6256 -3 1 2 0.00251897 0.00149709 -0.00473397 33.815 9.50434 -22.5977 
6544 409 3 1.008 0.03 4.21075 9.98901 1.53397 151.758 9.98901 50.7163 3 0 1 -0.0105359 0.00570752 -0.0108454 18.2172 -15.9869 -45.6108 
6534 409 2 12.01 0.11 4.50557 10.0033 0.410487 152.053 10.0033 49.5928 3 0 1 -0.0114053 -0.00433596 -0.00599482 -48.4185 55.6836 80.5401 
6543 409 3 1.008 0.03 4.94184 11.0247 0.41309 152.489 11.0247 49.5954 3 0 1 0.0226357 0.0016684 0.0078628 -8.39979 -15.4907 -15.6677 
10122 636 8 19 -0.16 7.39618 12.1752 4.3743 7.39618 12.1752 53.5566 0 0 1 -0.00286561 0.00406711 0.00270804 5.95438 1.44367 14.5979 
9865 619 6 16 -0.53 0.821928 12.938 2.70561 0.821928 62.1203 2.70561 0 1 0 0.00356233 0.0027569 -0.00195321 -24.6796 -19.8023 -7.86114 
4100 257 2 12.01 0.14 3.46042 15.2402 2.47813 3.46042 15.2402 -95.8866 0 0 -2 -0.000260399 0.00325223 0.000506423 -16.4097 -1.23619 24.2234 
4099 257 2 12.01 0.14 3.48923 15.3257 0.961972 3.48923 15.3257 -97.4027 0 0 -2 -0.00536595 0.00394767 -9.40788e-05 3.0079 -9.47276 8.88947 
4106 257 3 1.008 0.03 4.4195 15.1471 2.93465 4.4195 15.1471 -95.4301 0 0 -2 -0.0257626 -0.0163021 -0.0201143 18.4086 2.06097 -2.63295 
4105 257 3 1.008 0.03 2.9284 14.3818 2.93022 2.9284 14.3818 -95.4345 0 0 -2 0.0047471 -0.0339585 -0.0111407 6.86305 2.93831 -17.2922 
4103 257 3 1.008 0.03 2.52015 15.4136 0.559031 2.52015 15.4136 -97.8057 0 0 -2 -0.0102627 0.00590813 0.00661083 -20.497 19.631 -12.0602 
10117 636 4 14.01 -0.66 6.86645 9.61804 5.91426 6.86645 9.61804 55.0966 0 0 1 -0.00381447 0.00196501 -0.00236874 -17.848 -53.4363 -8.53477 
3780 237 2 12.01 0.14 0.60732 9.04396 6.28117 0.60732 58.2263 6.28117 0 1 0 -0.00237228 0.00616992 -0.00300581 34.8616 13.8477 -8.08571 
4097 257 1 16 -0.4 4.50372 16.1935 0.529343 4.50372 16.1935 -97.8354 0 0 -2 0.00343532 -0.00535631 -0.00617632 10.8145 7.69135 -7.87176 
10119 636 6 16 -0.53 5.30382 11.6383 6.22954 5.30382 11.6383 55.4119 0 0 1 0.00670718 -0.00137266 0.000954502 -11.2614 -16.2964 -2.37617 
4110 257 3 1.008 0.03 1.01768 16.25 2.15405 1.01768 16.25 -96.2106 0 0 -2 0.0159566 0.0218151 -0.00767942 -2.55321 -0.858702 25.4563 
4102 257 2 12.01 0.11 1.468 16.2691 3.18282 1.468 16.2691 -95.1819 0 0 -2 -0.00198264 0.00366608 -0.00253943 18.572 7.16197 -15.8611 
9854 618 8 19 -0.16 2.57044 16.5787 6.46892 51.7528 65.7611 6.46892 1 1 0 0.00121458 -0.00314826 -0.00307126 -0.0535449 -15.5117 1.61791 
4098 257 1 16 -0.4 2.88012 16.416 2.99176 2.88012 16.416 -95.3729 0 0 -2 0.000938345 -0.00204927 -0.00434758 -13.5319 1.75423 11.6651 
4111 257 3 1.008 0.03 1.24064 15.3941 3.79944 1.24064 15.3941 -94.5653 0 0 -2 -0.0217486 -0.00116381 -0.0127382 -4.40309 0.412895 -5.91144 
10118 636 5 32.06 1.02 6.52117 10.9506 6.58288 6.52117 10.9506 55.7652 0 0 1 0.0013121 -0.00218086 -5.29776e-05 15.8218 59.4239 -7.03659 
6538 409 3 1.008 0.03 1.83044 10.9361 0.633669 149.377 10.9361 49.816 3 0 1 0.00622575 -0.0196784 -0.0104157 -1.56787 -5.52754 -14.1939 
10063 632 8 19 -0.16 8.1308 16.6267 6.85422 57.3131 16.6267 56.0366 1 0 1 -0.00313491 0.000705838 -0.00252609 -15.8156 8.99194 11.3321 
8105 507 3 1.008 0.03 10.8052 13.7314 0.68059 59.9876 13.7314 99.0453 1 0 2 0.00530444 -0.00662458 -0.0166188 7.54359 -1.29483 11.4671 
9827 616 6 16 -0.53 13.2774 15.0241 7.41103 62.4597 15.0241 7.41103 1 0 0 3.0804e-05 -0.00264404 0.00393646 2.13454 -6.40561 -2.31182 
4688 293 3 1.008 0.03 14.6725 13.0049 1.02076 -34.5098 62.1873 50.2031 -1 1 1 -0.0111551 0.0042571 0.0132737 17.4583 -9.87623 -2.84896 
7929 496 3 1.008 0.03 9.0623 8.94872 6.66257 9.0623 8.94872 55.8449 0 0 1 -0.0163908 0.000814696 0.0198655 23.2415 -22.3089 14.9918 
10123 636 8 19 -0.16 8.97247 11.6655 5.73143 8.97247 11.6655 54.9138 0 0 1 -0.0011718 0.00126646 -0.000449371 3.1931 -10.7595 -0.146737 
4681 293 3 1.008 0.03 16.1925 15.3343 1.67232 -32.9899 64.5167 50.8547 -1 1 1 -0.000469768 -0.0115964 0.00172914 -20.5877 7.50047 8.12541 
7807 488 3 1.008 0.03 16.0091 10.2019 3.11842 65.1915 10.2019 3.11842 1 0 0 0.0366021 -0.0071469 -0.01085 -17.0917 12.3057 -20.5261 
4956 310 3 1.008 0.03 13.2093 9.05306 6.83513 62.3916 9.05306 6.83513 1 0 0 -0.00477083 0.00425892 -0.000619958 -9.2507 -12.5139 -16.6119 
8110 507 3 1.008 0.03 10.1927 10.7964 2.57635 59.375 10.7964 100.941 1 0 2 -0.00905798 0.0122342 -0.00878473 13.25 20.2407 -29.3225 
8102 507 2 12.01 0.11 10.843 11.5217 1.97887 60.0254 11.5217 100.344 1 0 2 0.00304701 0.00592208 0.00881702 9.09183 -25.5615 70.5393 
8107 507 3 1.008 0.03 11.0645 16.7157 4.17344 60.2469 16.7157 102.538 1 0 2 -0.00534657 -0.0154436 -0.0108802 14.192 9.4115 1.40815 
8104 507 3 1.008 0.03 10.9375 15.8791 1.41698 60.1199 15.8791 99.7817 1 0 2 0.0019115 0.00845165 0.0124026 13.1804 0.00684882 -0.433816 
8099 507 2 12.01 0.14 11.0916 15.2039 2.26348 60.274 15.2039 100.628 1 0 2 -0.00376133 -0.00160898 -0.00637817 -60.5429 -8.89476 -21.4549 
8098 507 1 16 -0.4 10.6261 12.8369 2.49436 59.8084 12.8369 100.859 1 0 2 -0.00241569 0.00531815 -7.78265e-05 -10.9705 -17.0404 -3.65171 
4953 310 3 1.008 0.03 14.277 11.6458 3.6986 63.4593 11.6458 3.6986 1 0 0 -0.0321027 0.0218648 0.0129961 -14.6001 18.5277 12.5647 
4954 310 3 1.008 0.03 13.0534 12.8626 4.06539 62.2358 12.8626 4.06539 1 0 0 -0.000971235 0.00198976 -0.00471361 -6.7158 9.76548 1.75163 
4948 310 2 12.01 0.14 13.8377 12.279 4.52024 63.0201 12.279 4.52024 1 0 0 0.00854318 0.00517554 -0.00170359 23.4848 -35.7733 -43.3045 
4947 310 2 12.01 0.14 13.3158 11.2863 5.53333 62.4982 11.2863 5.53333 1 0 0 6.51625e-05 0.00299299 0.0011857 -45.4054 29.5879 19.4136 
4951 310 3 1.008 0.03 12.7029 10.5269 5.09931 61.8853 10.5269 5.09931 1 0 0 -0.000441014 0.0102324 -0.00429385 -7.5557 -10.2839 -13.325 
4945 310 1 16 -0.4 14.3075 10.7475 6.30292 63.4898 10.7475 6.30292 1 0 0 -0.00387969 -0.00403457 -0.00418065 42.8533 -4.27775 15.9849 
4952 310 3 1.008 0.03 12.6595 11.7954 6.27176 61.8419 11.7954 6.27176 1 0 0 0.00803668 0.0130394 0.00475448 4.18693 2.2968 -16.4392 
8103 507 3 1.008 0.03 10.0877 15.4071 2.77002 59.27 15.4071 101.135 1 0 2 -0.0152828 0.00748081 0.00489211 31.064 -20.4858 -8.77536 
8100 507 2 12.01 0.14 11.278 13.7526 1.68653 60.4604 13.7526 100.051 1 0 2 0.00298087 -0.00346906 -0.00101457 -14.8777 26.2697 -11.4942 
7806 488 3 1.008 0.03 15.519 9.38026 4.66943 64.7014 9.38026 4.66943 1 0 0 -0.0273976 0.0193555 -0.0148013 21.6659 9.5034 -29.8143 
4946 310 1 16 -0.4 14.9542 12.9622 5.04194 64.1365 12.9622 5.04194 1 0 0 -0.0005514 -0.00319822 0.00121468 11.8477 -13.8272 38.0476 
4950 310 2 12.01 0.11 15.3471 14.1181 4.36091 64.5294 14.1181 4.36091 1 0 0 0.00268953 0.00114272 0.00481304 -36.8989 3.40691 -51.704 
8101 507 2 12.01 0.11 12.0316 16.7945 3.63537 61.214 16.7945 102 1 0 2 -0.00962097 -0.00382409 0.00774358 -49.1957 9.04799 -0.898172 
8097 507 1 16 -0.4 12.1754 15.5671 3.02263 61.3578 15.5671 101.387 1 0 2 -0.00306685 -0.00385354 0.00344592 28.6485 -19.7119 17.0131 
8106 507 3 1.008 0.03 12.2936 13.3874 1.59116 61.4759 13.3874 99.9559 1 0 2 -0.00595039 0.00490172 0.00248732 11.0321 14.2424 -3.16403 
10454 665 9 24.305 2 15.8902 11.8919 6.43965 65.0726 11.8919 6.43965 1 0 0 -0.000271366 0.00653179 0.000573678 -1.03426 -2.09129 5.94266 
8112 507 3 1.008 0.03 11.8616 11.245 2.34263 61.044 11.245 100.707 1 0 2 -0.0258622 0.0346575 0.0144673 -13.9193 2.26563 -13.1444 
4959 310 3 1.008 0.03 14.557 14.4122 3.65222 63.7393 14.4122 3.65222 1 0 0 -0.00887304 -0.00612193 -0.00994087 4.30343 0.481486 5.79412 
7798 488 2 12.01 0.11 16.3456 9.87608 4.05854 65.528 9.87608 4.05854 1 0 0 -0.00480111 -0.00743617 -0.00184988 -16.9179 -23.5952 47.5595 
3207 201 3 1.008 0.03 13.445 16.1604 1.30454 -84.9197 163.707 1.30454 -2 3 0 0.00331253 0.010636 0.0145119 1.63531 -5.85273 -29.9394 
8111 507 3 1.008 0.03 10.8272 11.3906 0.913421 60.0096 11.3906 99.2781 1 0 2 -0.0162487 -0.00230473 0.00112403 -8.81002 -2.3925 -11.5711 
4949 310 2 12.01 0.11 13.732 9.87109 7.26177 62.9144 9.87109 7.26177 1 0 0 0.00481745 -0.00174874 -0.00433431 -20.3048 7.123 0.495099 
4958 310 3 1.008 0.03 16.1786 14.001 3.72181 65.361 14.001 3.72181 1 0 0 -0.00135953 0.0319672 -0.0205227 18.5354 -9.35507 -1.19056 
4687 293 3 1.008 0.03 15.6885 11.4991 0.976571 -33.4938 60.6814 50.1589 -1 1 1 -0.0147129 -0.00606821 -0.0178802 1.58991 26.1881 -1.18042 
4960 310 3 1.008 0.03 15.5142 14.9858 4.90469 64.6965 14.9858 4.90469 1 0 0 -0.00809508 -0.00198367 0.0125276 6.50481 20.1654 28.8683 
7794 488 1 16 -0.4 16.7451 10.9902 4.90738 65.9275 10.9902 4.90738 1 0 0 0.00418515 -0.000185809 -0.0049084 10.4685 -16.1993 -9.72539 
4674 293 1 16 -0.4 16.6209 13.3041 1.55401 -32.5615 62.4865 50.7364 -1 1 1 0.00520573 0.00223473 -0.00596391 2.33358 -30.2939 -1.16553 
2425 152 3 1.008 0.03 8.65164 12.3653 0.802822 -138.895 61.5476 99.1675 -3 1 2 -0.001905 0.0159235 -0.0207139 10.1147 2.27074 -7.07229 
4678 293 2 12.01 0.11 15.6863 12.6057 0.761268 -33.4961 61.788 49.9436 -1 1 1 0.00223439 -0.000914841 0.00386121 -42.0013 -14.1476 -23.469 
9643 604 8 19 -0.16 14.0098 9.85107 0.420427 14.0098 59.0334 0.420427 0 1 0 0.0042757 -0.00584853 0.00344849 -4.20983 -8.69727 4.67518 
305 20 1 16 -0.4 24.725 9.34426 6.68196 -24.4574 -138.203 105.047 -1 -3 2 0.00475272 0.00613546 -0.00377023 2.58944 -13.7917 26.7891 
8581 537 2 12.01 0.11 24.8631 11.2352 2.6121 24.8631 11.2352 2.6121 0 0 0 -0.00447928 -0.00632081 -0.00374426 -2.79877 1.42958 -53.6761 
8589 537 3 1.008 0.03 24.4404 10.2429 2.63672 24.4404 10.2429 2.63672 0 0 0 0.00183863 -0.00501899 -0.0200227 -5.09413 -6.98118 3.46534 
6504 407 3 1.008 0.03 21.1873 9.53172 0.951935 -27.9951 58.7141 99.3166 -1 1 2 -0.0232675 -0.00458663 0.00850654 -2.14198 -24.574 5.46971 