ITEM: TIMESTEP
4750000
ITEM: NUMBER OF ATOMS
10479
ITEM: BOX BOUNDS pp pp pp
4.0882558190751794e-01 4.9591174418091420e+01
4.0882558190751794e-01 4.9591174418091420e+01
4.0882558190751794e-01 4.9591174418091420e+01
ITEM: ATOMS id mol type mass q x y z xu yu zu ix iy iz vx vy vz fx fy fz 
2056 129 3 1.008 0.03 5.43598 6.48709 6.67131 54.6183 55.6694 55.8537 1 1 1 -0.00948062 0.0103387 -0.00378526 -33.2023 19.4512 -11.264 
2051 129 2 12.01 0.14 6.26418 5.87487 6.75328 55.4465 55.0572 55.9356 1 1 1 -0.00178578 0.00553943 -0.00542446 56.4506 1.10138 26.451 
2050 129 1 16 -0.4 4.697 4.05281 6.97793 53.8794 53.2352 56.1603 1 1 1 0.00786427 -0.00314659 -0.000438968 -20.218 -31.4842 -6.91449 
8424 527 3 1.008 0.03 4.50199 4.18463 4.201 -44.6804 53.367 53.3833 -1 1 1 -0.0053725 -0.0191239 0.0137141 11.1765 18.5797 -12.7489 
2064 129 3 1.008 0.03 3.37446 2.46079 7.10381 52.5568 51.6431 56.2862 1 1 1 0.0331624 0.029487 -0.00374302 -20.8283 -8.74971 -7.31482 
8429 527 3 1.008 0.03 1.15058 5.38683 4.4969 -48.0318 54.5692 53.6793 -1 1 1 0.018519 0.0194378 0.0101539 3.63412 10.8603 -7.25776 
8419 527 2 12.01 0.14 4.38235 5.20304 3.74807 -44.8 54.3854 52.9304 -1 1 1 0.00448747 -0.00738362 0.00986389 -23.1652 -17.3525 -7.24816 
8426 527 3 1.008 0.03 4.90158 4.973 1.61192 -44.2808 54.1553 50.7943 -1 1 1 -0.0305565 0.00612178 0.00266538 -10.2802 -11.9652 -11.6244 
2049 129 1 16 -0.4 6.98251 5.63368 5.53984 56.1649 54.816 54.7222 1 1 1 0.00227798 0.00419711 0.00303753 6.46612 35.0113 -11.6454 
8428 527 3 1.008 0.03 2.67452 5.54224 5.40335 -46.5078 54.7246 54.5857 -1 1 1 -0.0295112 0.00426496 0.00623566 -12.6289 -2.98404 -2.79983 
8421 527 2 12.01 0.11 2.1766 5.05217 4.54663 -47.0057 54.2345 53.729 -1 1 1 0.00899916 0.00231636 0.00696384 5.81193 -3.04402 32.407 
8417 527 1 16 -0.4 2.96193 5.27106 3.42332 -46.2204 54.4534 52.6057 -1 1 1 0.00414348 0.000683355 -0.00116177 28.8332 10.833 -12.7468 
8423 527 3 1.008 0.03 4.70946 5.94549 4.47514 -44.4729 55.1278 53.6575 -1 1 1 0.000289286 0.00688144 -0.00424799 -8.94538 -1.66632 4.48246 
8420 527 2 12.01 0.14 5.21686 5.49746 2.48178 -43.9655 54.6798 51.6641 -1 1 1 -0.00168821 0.00294299 0.000222977 31.208 -0.35095 20.5055 
8425 527 3 1.008 0.03 6.2945 5.26048 2.65664 -42.8878 54.4428 51.839 -1 1 1 0.00468648 -0.0224872 -0.00469393 -20.8362 -0.523886 -0.857685 
8418 527 1 16 -0.4 5.1792 6.87617 2.24139 -44.0032 56.0585 51.4237 -1 1 1 0.00132307 -0.000596304 -0.00167118 -3.00541 24.6606 -3.22641 
1258 79 3 1.008 0.03 5.54055 2.97947 2.23406 103.905 -46.2029 100.599 2 -1 2 0.00748608 -0.00947931 -0.00134509 -8.26981 -21.8716 -11.5556 
8422 527 2 12.01 0.11 5.91964 7.3179 1.10318 -43.2627 56.5002 50.2855 -1 1 1 0.00137514 -0.00029598 0.00383558 10.3451 -9.4217 5.01297 
1254 79 2 12.01 0.11 4.09674 1.17841 3.54599 102.461 -48.0039 101.911 2 -1 2 -0.00884705 0.000434118 0.00575869 -17.0245 -28.8947 25.243 
8427 527 3 1.008 0.03 2.11144 3.99383 4.77286 -47.0709 53.1762 53.9552 -1 1 1 -0.00343565 -6.8011e-05 0.0085795 3.54744 -4.52298 0.100687 
1262 79 3 1.008 0.03 3.18475 1.48708 3.04345 101.549 -47.6953 101.408 2 -1 2 -0.0201793 0.00541907 0.0190999 7.65037 16.4562 -10.0346 
2059 129 3 1.008 0.03 8.37781 7.18971 5.67194 57.5602 56.3721 54.8543 1 1 1 0.0267191 -0.00230942 0.00685269 3.58797 2.05352 -1.73846 
2053 129 2 12.01 0.11 7.60145 6.86011 4.98569 56.7838 56.0425 54.168 1 1 1 -0.00840426 -0.0033066 -0.00629511 -36.4646 -31.4198 37.7734 
2061 129 3 1.008 0.03 6.84968 7.68342 4.8957 56.032 56.8658 54.078 1 1 1 0.00408652 0.00486838 0.00937699 13.304 -14.282 -7.65138 
2060 129 3 1.008 0.03 8.05286 6.53648 4.07001 57.2352 55.7188 53.2524 1 1 1 0.00189697 0.0280133 -0.0126495 4.1409 8.53585 -15.3473 
1264 79 3 1.008 0.03 4.31375 1.78654 4.4466 102.678 -47.3958 102.811 2 -1 2 0.0112165 0.00171773 -0.0215021 2.00734 0.117827 -15.448 
4763 298 3 1.008 0.03 2.8606 8.16256 4.84754 52.0429 8.16256 4.84754 1 0 0 0.0126137 -0.00585711 -0.00752486 -8.04444 3.82328 8.28058 
908 57 3 1.008 0.03 2.74353 6.90596 1.22153 51.9259 -42.2764 -47.9608 1 -1 -1 -0.01513 0.0199288 0.00959372 15.9637 -2.80737 12.9484 
7241 453 3 1.008 0.03 8.38174 4.63979 2.34928 106.746 103.004 51.5316 2 2 1 0.00293995 -0.0287731 -0.0223697 19.5912 -2.90189 18.4097 
1256 79 3 1.008 0.03 7.96725 2.41379 1.77141 106.332 -46.7686 100.136 2 -1 2 0.00465728 -0.0017995 0.0117198 -15.9697 -22.0583 -4.32545 
1251 79 2 12.01 0.14 7.154 1.65279 1.6044 105.519 -47.5296 99.9691 2 -1 2 0.00397908 -0.000847864 -0.00223317 63.1814 -19.5229 -11.5894 
8431 527 3 1.008 0.03 7.00889 7.40462 1.28388 -42.1735 56.587 50.4662 -1 1 1 -0.0361802 0.0264418 -0.0119384 -11.9273 -2.38561 2.06787 
4764 298 3 1.008 0.03 1.37836 8.06575 3.89425 50.5607 8.06575 3.89425 1 0 0 0.00712647 -0.00232704 -0.00505663 -6.34803 -6.73172 3.53517 
1255 79 3 1.008 0.03 7.60195 0.620224 1.69927 105.967 -48.5621 100.064 2 -1 2 -0.0214678 0.00155383 -0.00853266 -13.8704 24.5437 22.9389 
9232 577 3 1.008 0.03 0.444194 4.75642 6.82227 49.6265 -44.4259 56.0046 1 -1 1 0.00925638 -0.0181637 -0.000433689 0.315752 -8.0694 5.71615 
4527 283 3 1.008 0.03 1.53206 0.984374 0.439042 -47.6503 0.984374 98.8037 -1 0 2 0.0140632 -0.00674954 0.0133952 -11.4568 7.38943 -12.9251 
907 57 3 1.008 0.03 1.19555 7.30903 0.656851 50.3779 -41.8733 -48.5255 1 -1 -1 -0.00581972 0.0313928 -0.0244601 4.79905 -2.17526 -4.7849 
1252 79 2 12.01 0.14 6.00418 2.01238 2.47991 104.369 -47.17 100.845 2 -1 2 0.00335666 -0.00537252 -0.00073045 18.3802 32.8096 36.3607 
1250 79 1 16 -0.4 5.22527 0.874408 2.69479 103.59 -48.3079 101.059 2 -1 2 0.000374359 0.00433471 -0.00322412 -33.1665 1.30022 13.7186 
4760 298 3 1.008 0.03 1.36351 8.11259 6.74777 50.5459 8.11259 6.74777 1 0 0 0.00445744 0.0098237 0.00253421 -5.28622 -4.67006 -11.3375 
1257 79 3 1.008 0.03 6.48333 2.33413 3.43861 104.848 -46.8482 101.803 2 -1 2 0.0224323 -0.00704956 -0.00262202 -10.8342 -15.1296 -11.2883 
2062 129 3 1.008 0.03 5.10132 1.96358 6.90456 54.2837 51.1459 56.0869 1 1 1 -0.00732346 0.00157416 -0.0104474 -18.6561 12.7026 6.683 
8430 527 3 1.008 0.03 5.56689 8.26041 0.696597 -43.6155 57.4428 49.8789 -1 1 1 -0.0253728 0.00252215 0.00779139 -2.65748 4.6551 4.27227 
2055 129 3 1.008 0.03 6.95898 6.49748 7.38788 56.1413 55.6798 56.5702 1 1 1 -0.00206086 0.00794069 0.000715491 -14.9987 -20.7755 -9.00431 
2057 129 3 1.008 0.03 6.75554 3.8773 7.31271 55.9379 53.0596 56.4951 1 1 1 -0.0215025 0.014812 -0.0222928 4.05093 -11.0112 -5.55744 
2054 129 2 12.01 0.11 4.37152 2.67886 7.37335 53.5539 51.8612 56.5557 1 1 1 0.00387137 -0.00591281 0.000326455 58.9189 25.7325 19.45 
7248 453 3 1.008 0.03 7.46819 4.26666 0.580402 105.833 102.631 49.7628 2 2 1 0.00243279 -0.0111922 0.00545865 0.951161 -9.88203 -8.50018 
7234 453 1 16 -0.4 9.61522 4.27002 0.80012 107.98 102.635 49.9825 2 2 1 0.00242788 0.00448916 -0.00207771 -30.298 -0.437124 -29.1843 
7236 453 2 12.01 0.14 9.4163 4.87341 2.03473 107.781 103.238 51.2171 2 2 1 -0.00177406 -0.0020461 -0.00397654 -24.4163 14.6392 8.75197 
7245 453 3 1.008 0.03 10.7168 1.39163 4.48966 109.082 99.7563 53.672 2 2 1 -0.0050443 -0.0105426 -0.00990154 -8.82462 -22.4822 -1.52338 
5786 362 3 1.008 0.03 14.6961 2.2124 5.37045 -132.851 -46.97 152.917 -3 -1 3 0.00561886 0.0142572 0.0137198 -14.0623 -2.1544 -23.9367 
5781 362 2 12.01 0.11 13.1122 5.7284 5.84065 -134.435 -43.454 153.388 -3 -1 3 0.00218256 0.00390668 -0.000991832 44.3488 51.6479 38.6316 
7237 453 2 12.01 0.11 10.8397 2.42122 4.29097 109.204 100.786 53.4733 2 2 1 -0.00303239 0.00184525 -0.00544504 39.8553 25.9991 -33.5515 
7244 453 3 1.008 0.03 10.5382 2.97348 5.12215 108.903 101.338 54.3045 2 2 1 0.00708586 0.0160642 0.0178199 -2.17783 12.0283 32.769 
7243 453 3 1.008 0.03 11.9176 2.61766 4.05093 110.282 100.982 53.2333 2 2 1 -0.00998648 0.0126231 0.018576 -17.3177 -7.29507 12.0192 
5777 362 1 16 -0.4 13.5411 4.43007 5.59396 -134.006 -44.7523 153.141 -3 -1 3 -0.00377844 0.00174145 0.00231859 5.62128 -26.5237 7.26614 
5779 362 2 12.01 0.14 14.0299 3.69886 6.73702 -133.517 -45.4835 154.284 -3 -1 3 0.00192781 0.00119729 0.00220462 -30.5101 13.8302 27.023 
5790 362 3 1.008 0.03 16.3413 0.623816 5.69362 -131.206 -48.5585 153.241 -3 -1 3 0.00722004 -0.000180857 -0.00464649 11.2504 22.143 3.837 
5789 362 3 1.008 0.03 12.3444 5.97836 5.20398 -135.203 -43.204 152.751 -3 -1 3 0.0304588 0.00480467 0.0128356 -36.9134 3.43456 -20.6982 
7233 453 1 16 -0.4 10.1106 2.98242 3.23056 108.475 101.347 52.4129 2 2 1 -0.003078 -3.6851e-05 -0.00102097 1.36903 17.1249 -4.01087 
7240 453 3 1.008 0.03 11.4926 4.42198 2.38099 109.857 102.787 51.5633 2 2 1 -0.00705979 0.0210866 0.016904 -38.5543 -0.2005 35.9198 
7235 453 2 12.01 0.14 10.4909 4.37138 2.97713 108.856 102.736 52.1595 2 2 1 0.00737912 0.00201422 -0.000828859 24.771 -15.0909 -19.0318 
7239 453 3 1.008 0.03 10.4789 5.02527 3.8818 108.844 103.39 53.0641 2 2 1 -0.00131605 -0.00721539 -0.0104578 5.3428 -13.7092 -11.2766 
5785 362 3 1.008 0.03 13.2511 1.75353 6.46606 -134.296 -47.4288 154.013 -3 -1 3 0.00819668 -0.00266949 -0.016657 -19.2822 -12.9591 -20.0595 
8119 508 3 1.008 0.03 11.5155 6.99746 2.2316 109.88 6.99746 149.779 2 0 3 0.0152438 -0.00929219 0.000957006 12.6663 28.9432 6.91709 
8115 508 2 12.01 0.14 12.0254 8.01025 2.30989 110.39 8.01025 149.857 2 0 3 -0.00474037 -0.000536953 -0.00144814 -23.6769 -38.9365 0.528341 
5780 362 2 12.01 0.14 14.1763 2.24864 6.30578 -133.371 -46.9337 153.853 -3 -1 3 0.00982024 0.00439538 -0.00243634 49.3904 -14.5916 43.9599 
7334 459 2 12.01 0.11 16.5697 4.99569 3.28475 -81.795 152.543 52.4671 -2 3 1 0.00284304 2.87704e-05 -0.00160885 -2.98539 24.1485 -15.2119 
7344 459 3 1.008 0.03 16.7037 4.30272 4.1051 -81.661 151.85 53.2875 -2 3 1 0.0217684 -0.0106854 0.00532347 -4.81548 -5.22377 4.16247 
7330 459 1 16 -0.4 16.583 4.43373 1.99964 -81.7817 151.981 51.182 -2 3 1 0.00619216 -0.00641797 0.00141811 10.0877 -12.7668 -27.1855 
8114 508 1 16 -0.4 10.7415 8.43227 4.14696 109.106 8.43227 151.694 2 0 3 0.00299273 0.00557282 0.00239723 -10.1753 39.2581 32.757 
8120 508 3 1.008 0.03 13.0115 7.86538 1.94607 111.376 7.86538 149.493 2 0 3 0.0117872 -0.0131683 -0.0189611 17.817 4.33315 -12.5714 
8121 508 3 1.008 0.03 12.6532 8.08243 4.40179 111.018 8.08243 151.949 2 0 3 0.0112919 -0.0200744 -0.0232905 30.6507 -20.6479 17.935 
8116 508 2 12.01 0.14 12.073 8.5638 3.70089 110.438 8.5638 151.248 2 0 3 -0.00274781 0.00302716 -0.00288542 -38.7903 2.33836 -12.6419 
5778 362 1 16 -0.4 15.1078 1.51367 7.15553 -132.439 -47.6687 154.703 -3 -1 3 -0.000588552 0.00132367 0.00561865 -7.32303 21.7532 3.71479 
7242 453 3 1.008 0.03 9.35976 5.96538 1.93528 107.724 104.33 51.1176 2 2 1 -0.0104362 0.0343128 0.0146746 12.2528 -3.82397 0.937367 
8927 558 3 1.008 0.03 15.8866 0.41422 3.27701 -33.2958 49.5966 3.27701 -1 1 0 -0.0022581 0.00895883 -0.00985306 0.900921 1.99816 -12.3311 
7337 459 3 1.008 0.03 14.6764 4.02346 1.89825 -83.6883 151.571 51.0806 -2 3 1 -0.0122968 -0.00795755 0.00240203 -7.28225 -14.3475 -13.7174 
7343 459 3 1.008 0.03 15.7244 5.71876 3.40133 -82.6403 153.266 52.5837 -2 3 1 -0.052362 -0.0148865 -0.0185838 12.342 -15.6868 3.89641 
7338 459 3 1.008 0.03 15.7286 2.73308 2.45105 -82.636 150.28 51.6334 -2 3 1 -0.0154687 -0.0211441 -0.00932863 -4.25918 -14.265 8.98783 
7332 459 2 12.01 0.14 15.597 3.46608 1.68599 -82.7677 151.013 50.8683 -2 3 1 -0.00363885 -0.0041699 -7.47701e-05 4.44435 38.9897 60.3381 
5787 362 3 1.008 0.03 12.8708 6.0467 6.89322 -134.676 -43.1356 154.44 -3 -1 3 -0.0173089 -0.00549876 0.0160069 -0.138725 -18.6979 -20.0553 
5788 362 3 1.008 0.03 13.8841 6.48467 5.53153 -133.663 -42.6977 153.079 -3 -1 3 0.000988481 0.0125411 0.00385012 -8.28497 -23.1546 7.34436 
5783 362 3 1.008 0.03 15.0156 4.06175 7.04508 -132.531 -45.1206 154.592 -3 -1 3 0.00672058 0.00960242 0.0175807 -4.53186 4.4735 -0.122945 
8595 538 2 12.01 0.14 24.9556 4.07431 7.06615 -24.2267 53.2567 7.06615 -1 1 0 0.000566209 -0.00120268 -0.0073059 -55.3887 -17.8758 16.5422 
8606 538 3 1.008 0.03 24.4436 1.09584 4.6113 -24.7387 50.2782 4.6113 -1 1 0 0.0198105 0.00158228 0.0118404 -13.0589 -17.3701 0.171132 
302 19 3 1.008 0.03 19.8156 4.88343 1.83483 19.8156 103.248 -47.3475 0 2 -1 -0.0040335 -0.0107666 0.00500974 14.4709 18.4838 7.40955 
7342 459 3 1.008 0.03 17.4926 5.56757 3.17674 -80.8721 153.115 52.3591 -2 3 1 -0.015138 0.0309402 0.00817988 -6.64817 4.34374 10.6549 
8608 538 3 1.008 0.03 23.1303 2.06173 4.15878 -26.052 51.2441 4.15878 -1 1 0 -0.0174839 0.00994641 0.0104504 -4.23376 -7.4663 17.5284 
9598 601 8 19 -0.16 19.1336 5.94216 4.40662 -30.0487 55.1245 4.40662 -1 1 0 0.00139558 0.000878211 0.000222405 31.4264 13.4381 24.6852 
9597 601 8 19 -0.16 18.8233 6.2113 6.52157 -30.3591 55.3936 6.52157 -1 1 0 -0.00806713 0.00470139 -0.0014639 13.4195 2.38097 -27.0012 
9599 601 8 19 -0.16 20.1165 7.55224 5.56786 -29.0658 56.7346 5.56786 -1 1 0 -0.000916954 -0.00553495 0.000538117 7.96897 0.56582 -14.1042 
289 19 1 16 -0.4 24.455 4.34342 1.98163 24.455 102.708 -47.2007 0 2 -1 0.00496132 -0.000113644 0.00292421 -18.8975 4.45355 -0.288126 
8594 538 1 16 -0.4 23.7147 2.08095 6.23371 -25.4676 51.2633 6.23371 -1 1 0 -0.0101586 0.00457943 0.00454981 12.0085 0.352822 -11.0399 
9596 601 7 12.01 0.35 19.7795 6.27412 5.56002 -29.4029 55.4565 5.56002 -1 1 0 -0.00227833 0.000213989 0.00586303 -53.0245 -9.96922 28.9151 
9595 601 6 16 -0.53 22.2151 5.4045 5.26549 -26.9673 54.5869 5.26549 -1 1 0 -0.00367982 -0.000307178 0.00027449 20.248 14.0884 -3.63307 
9593 601 5 32.06 1.02 21.0973 5.13042 6.10829 -28.0851 54.3128 6.10829 -1 1 0 -0.00076369 -0.00389216 0.000556931 -30.1149 -22.1129 -33.6376 
9592 601 4 14.01 -0.66 20.3988 3.78448 5.6522 -28.7836 52.9668 5.6522 -1 1 0 -0.00344745 0.00237232 -0.000443891 -2.12522 21.3818 -9.46273 
8601 538 3 1.008 0.03 24.4491 3.64443 4.98715 -24.7332 52.8268 4.98715 -1 1 0 0.0302615 0.0348087 0.00623523 11.9391 -18.9531 29.2602 
9600 601 5 32.06 1.02 20.3624 2.37285 6.24917 -28.82 51.5552 6.24917 -1 1 0 0.0089319 -0.00276559 0.000970203 -9.65672 22.9981 32.5521 
298 19 3 1.008 0.03 21.9407 3.03825 2.35004 21.9407 101.403 -46.8323 0 2 -1 -0.0050545 -0.00231685 -0.00117399 1.47589 -8.30336 2.75458 
9602 601 6 16 -0.53 20.1816 1.31495 5.28957 -29.0007 50.4973 5.28957 -1 1 0 0.00107138 -0.00342493 0.00311658 6.45732 -3.46197 4.68842 
8596 538 2 12.01 0.14 24.7453 3.04631 5.9198 -24.4371 52.2287 5.9198 -1 1 0 0.00487815 -0.000706258 -0.00586602 33.3399 29.2662 -25.9973 
9601 601 6 16 -0.53 21.3392 2.24591 7.31675 -27.8431 51.4283 7.31675 -1 1 0 0.00354912 0.0026834 0.0014108 6.75922 -17.3144 -0.967041 
9604 601 8 19 -0.16 17.8226 2.77131 6.27328 -31.3598 51.9537 6.27328 -1 1 0 0.00611872 0.00135276 0.00518108 -5.9498 -6.30954 24.2564 
8598 538 2 12.01 0.11 23.452 1.38867 4.9875 -25.7303 50.571 4.9875 -1 1 0 -0.00350125 -0.00606669 -0.00277243 9.5934 14.1413 -9.28359 
291 19 2 12.01 0.14 23.1358 4.6393 1.52563 23.1358 103.004 -47.6567 0 2 -1 -0.000686688 -0.00503376 0.00239824 5.80999 -12.0005 -41.8339 
7192 450 3 1.008 0.03 19.7985 1.01635 1.07917 19.7985 99.381 148.626 0 2 3 -0.0163236 0.0509384 -0.0017234 0.838106 2.47334 -17.4433 
292 19 2 12.01 0.14 22.2278 3.41556 1.37553 22.2278 101.78 -47.8068 0 2 -1 0.0081269 0.00398941 -0.00448301 -5.01314 25.4184 16.9879 
299 19 3 1.008 0.03 24.5095 6.12708 3.14944 24.5095 104.492 -46.0329 0 2 -1 0.015209 -0.028993 -0.0241111 16.8237 -17.4477 5.05724 
4025 252 3 1.008 0.03 21.3223 8.44592 3.49117 21.3223 57.6283 52.6735 0 1 1 -0.036721 0.00974582 -0.0130999 10.3368 17.8532 4.64506 
295 19 3 1.008 0.03 22.6012 5.28756 2.15274 22.6012 103.652 -47.0296 0 2 -1 0.0219128 -0.0221182 0.00453188 -8.0276 22.6556 19.356 
297 19 3 1.008 0.03 22.6191 2.6688 0.77414 22.6191 101.034 -48.4082 0 2 -1 0.00387641 0.00412105 0.00668242 27.5114 -28.7591 -10.7139 
9603 601 7 12.01 0.35 18.7673 2.45565 7.16802 -30.4151 51.638 7.16802 -1 1 0 -0.00546278 0.000947981 -0.00888576 19.488 -75.666 -36.7555 
4673 293 1 16 -0.4 17.0417 7.98021 1.28913 -32.1406 57.1626 50.4715 -1 1 1 0.000510703 -0.00389139 0.00343481 20.4565 10.2214 -8.4954 
8928 558 3 1.008 0.03 17.6477 0.677088 3.1217 -31.5346 49.8594 3.1217 -1 1 0 -0.0211964 -0.0203624 -0.022033 1.11531 4.94803 4.60526 
290 19 1 16 -0.4 21.1372 3.7493 0.580464 21.1372 102.114 -48.6019 0 2 -1 -0.00142067 0.00203304 0.00433318 -18.7822 7.31619 -3.14807 
4679 293 3 1.008 0.03 18.7538 8.47384 2.12801 -30.4285 57.6562 51.3104 -1 1 1 0.0126668 0.0345024 -0.0136184 8.86514 -13.1683 13.7392 
4017 252 1 16 -0.4 22.3893 8.57453 1.20903 22.3893 57.7569 50.3914 0 1 1 -0.000646937 -0.00481046 0.00222235 22.4997 6.3976 -8.63543 
4675 293 2 12.01 0.14 18.5036 7.9189 1.2349 -30.6788 57.1012 50.4173 -1 1 1 -0.00295028 -0.0121393 0.007551 -66.554 10.4392 22.6011 
4680 293 3 1.008 0.03 18.8187 6.88665 1.2136 -30.3637 56.069 50.396 -1 1 1 -0.00438606 0.0150721 0.00072282 9.86951 -4.55266 6.21634 
8607 538 3 1.008 0.03 22.7186 0.560797 5.05582 -26.4637 49.7431 5.05582 -1 1 0 -0.00574628 -0.0289412 -0.0215563 14.0671 4.61245 1.46924 
303 19 3 1.008 0.03 19.1231 4.05336 0.577162 19.1231 102.418 -48.6052 0 2 -1 -0.00835963 -0.00902465 -0.00239648 -2.47658 -10.6879 3.00798 
4027 252 3 1.008 0.03 24.3205 7.80895 0.441155 24.3205 56.9913 49.6235 0 1 1 -0.0120632 0.011537 0.0080168 -29.7615 5.64546 0.926527 
294 19 2 12.01 0.11 19.9313 3.96836 1.30604 19.9313 102.333 -47.8763 0 2 -1 0.0045367 -0.00814843 -0.00340703 -7.12164 -5.90458 -5.05114 
304 19 3 1.008 0.03 19.7622 3.21096 2.0775 19.7622 101.576 -47.1049 0 2 -1 0.0145085 -0.00746634 0.0194372 -6.6809 -4.39418 -8.77834 
8599 538 3 1.008 0.03 24.5801 5.09629 6.83805 -24.6022 54.2786 6.83805 -1 1 0 0.00820678 0.00880497 -0.00146323 13.437 -12.4947 -13.8911 
296 19 3 1.008 0.03 23.1914 5.11374 0.516963 23.1914 103.478 -48.6654 0 2 -1 -0.00349375 0.0247869 -0.00105168 3.01936 -3.00145 17.2969 
6681 418 3 1.008 0.03 5.65976 9.47458 6.51874 104.024 -88.8901 55.7011 2 -2 1 0.00595885 0.00104381 0.0148155 2.27933 11.9188 0.477788 
4944 309 3 1.008 0.03 0.573348 15.0781 1.18278 49.7557 -83.2866 1.18278 1 -2 0 0.00849901 -0.0036232 -0.00898318 6.26079 -4.15728 7.50732 
5119 320 3 1.008 0.03 3.37246 11.7928 2.68776 101.737 60.9752 101.052 2 1 2 0.0254377 0.00538326 8.1093e-05 10.2293 -6.30123 9.64478 
5110 320 2 12.01 0.11 3.7493 12.6042 2.08234 102.114 61.7865 100.447 2 1 2 0.00811315 0.000374333 -0.00311718 -18.6553 44.4923 26.4417 
5118 320 3 1.008 0.03 4.80394 12.5118 1.82908 103.169 61.6941 100.194 2 1 2 0.00462548 0.00989369 -0.00752862 -0.359815 4.01754 11.4985 
5106 320 1 16 -0.4 3.28631 13.8784 2.71456 101.651 63.0608 101.079 2 1 2 -0.0066192 0.00267671 0.00427154 21.5746 -21.2836 -17.3387 
1089 69 1 16 -0.4 6.92686 11.22 1.41836 105.292 11.22 -96.9463 2 0 -2 0.00477752 0.00636663 -0.00024118 1.11269 -7.8177 8.66517 
7092 444 2 12.01 0.14 1.69484 13.8287 6.93836 50.8772 63.011 -42.244 1 1 -1 -0.00279582 -0.00642456 0.00115472 -9.40564 30.3519 -44.342 
7098 444 3 1.008 0.03 2.55656 14.053 6.3085 51.7389 63.2354 -42.8738 1 1 -1 -0.00285117 0.0122936 0.0106324 -11.3687 6.68813 -11.5237 
6678 418 2 12.01 0.11 4.00538 11.6217 5.72798 102.37 -86.743 54.9103 2 -2 1 -0.00171004 0.00312742 -0.00488268 33.1876 -15.8452 1.34262 
7089 444 1 16 -0.4 0.480095 15.8391 6.22456 49.6624 65.0215 -42.9578 1 1 -1 -0.00200933 0.00146282 0.00829099 -41.642 15.585 -7.56276 
6686 418 3 1.008 0.03 4.12166 12.6898 5.62172 102.486 -85.6749 54.8041 2 -2 1 -0.02731 -0.00819145 -0.0259315 -7.84699 5.55365 -11.3876 
4753 298 1 16 -0.4 1.31804 9.58273 5.27002 50.5004 9.58273 5.27002 1 0 0 -0.00130704 -0.00848424 0.00402192 -7.93378 -1.51665 22.346 
4757 298 2 12.01 0.11 2.03708 8.74663 4.41617 51.2194 8.74663 4.41617 1 0 0 -0.00493841 0.00285949 0.00301828 12.9741 -25.4893 -21.2149 
4765 298 3 1.008 0.03 2.50154 9.24692 3.59073 51.6839 9.24692 3.59073 1 0 0 -0.0191863 0.00351572 0.00295904 3.33251 17.2315 -4.31541 
6687 418 3 1.008 0.03 4.44453 11.0798 4.85202 102.809 -87.2849 54.0344 2 -2 1 0.00379555 0.00625056 0.0224279 -0.641455 13.731 16.1399 
5113 320 3 1.008 0.03 3.452 15.1022 1.09837 101.817 64.2846 99.4631 2 1 2 -0.0245727 0.0049432 0.0024206 0.481515 0.626228 -8.31031 
5108 320 2 12.01 0.14 3.74153 15.1326 2.13758 102.106 64.315 100.502 2 1 2 -0.0017979 -0.001353 0.0099055 -4.41218 -41.8821 1.06871 
5111 320 3 1.008 0.03 3.61895 16.7733 3.60292 101.984 65.9557 101.968 2 1 2 -0.0127403 0.0179305 0.00277661 9.85902 -2.21315 -0.626632 
5114 320 3 1.008 0.03 4.81082 15.2085 2.18283 103.176 64.3908 100.548 2 1 2 0.00431368 0.0123895 -0.00259157 11.0247 2.30783 0.79451 
5107 320 2 12.01 0.14 3.05747 16.2914 2.8095 101.422 65.4737 101.174 2 1 2 0.00148075 -0.0070304 -0.00170401 -0.267344 12.3219 24.953 
5112 320 3 1.008 0.03 2.20907 15.8829 3.31918 100.574 65.0653 101.684 2 1 2 -0.00525264 0.00308303 -0.00398909 -17.7235 2.65767 2.05806 
1091 69 2 12.01 0.14 7.52881 11.9227 2.52481 105.894 11.9227 -95.8399 2 0 -2 0.0038697 -0.002004 -0.00375909 29.8727 22.7312 -6.1276 
1096 69 3 1.008 0.03 7.10066 11.5413 3.45372 105.465 11.5413 -94.911 2 0 -2 -0.000839568 -0.0159506 0.0196716 7.25386 -9.33298 -1.6305 
7097 444 3 1.008 0.03 1.52744 12.8026 6.80135 50.7098 61.985 -42.381 1 1 -1 0.0170704 -0.0081957 -0.0247235 3.13088 -31.957 15.6188 
5120 320 3 1.008 0.03 3.22347 12.3851 1.20058 101.588 61.5675 99.5653 2 1 2 0.0068647 0.0245974 0.0116297 -12.3142 5.39169 -26.2968 
1095 69 3 1.008 0.03 7.22315 12.9821 2.60167 105.588 12.9821 -95.763 2 0 -2 0.00361824 0.00253933 0.00584131 1.4147 -9.16816 -9.71922 
8543 534 3 1.008 0.03 5.55514 15.7314 6.80755 103.92 15.7314 6.80755 2 0 0 0.017357 -0.0286648 0.00136854 14.9 14.3084 7.07409 
8544 534 3 1.008 0.03 4.20718 16.342 6.05046 102.572 16.342 6.05046 2 0 0 -0.00301576 0.0194325 -0.0164637 17.2238 13.7738 -12.2144 
8534 534 2 12.01 0.11 5.31107 16.5096 6.07981 103.676 16.5096 6.07981 2 0 0 0.000781652 -0.00159842 -0.00553204 -13.9126 -27.2084 0.333114 
8542 534 3 1.008 0.03 5.80357 16.2101 5.17392 104.168 16.2101 5.17392 2 0 0 0.0110017 -0.011166 0.0062202 -5.18725 -10.5753 -13.0584 
5320 333 3 1.008 0.03 7.71395 12.6685 6.9055 56.8963 111.033 105.27 1 2 2 0.00794212 0.00204045 0.00376069 24.3579 12.7002 3.7811 
381 24 3 1.008 0.03 0.609162 11.6204 2.16453 148.156 -37.562 2.16453 3 -1 0 0.0141797 0.0128461 0.017151 34.103 -6.41737 -13.9154 
6688 418 3 1.008 0.03 2.99178 11.2766 5.77519 101.356 -87.0881 54.9575 2 -2 1 -0.0113663 0.0191123 -0.00035994 -13.6604 8.13892 1.97354 
6676 418 2 12.01 0.14 4.86533 9.91911 7.12889 103.23 -88.4456 56.3112 2 -2 1 -0.00174892 0.00707303 0.00287569 -3.66277 19.4338 -16.492 
4755 298 2 12.01 0.14 0.658174 8.83468 6.31473 49.8405 8.83468 6.31473 1 0 0 0.00368879 -0.0031246 -0.00539512 28.771 20.6052 -0.234526 
6682 418 3 1.008 0.03 3.97806 9.45366 6.6831 102.343 -88.911 55.8654 2 -2 1 -0.0018295 0.00896004 -0.0302999 -0.729024 -7.56474 17.7666 
5758 360 3 1.008 0.03 6.83854 15.2999 1.03934 -91.5262 15.2999 -146.508 -2 0 -3 0.0122918 0.0180697 -0.0372666 14.5531 3.60238 -16.6504 
5759 360 3 1.008 0.03 8.56269 15.13 0.707926 -89.802 15.13 -146.839 -2 0 -3 0.00918934 0.00692141 -0.0344463 4.63248 -15.5295 -10.4318 
6674 418 1 16 -0.4 4.67094 11.3553 6.97119 103.036 -87.0094 56.1535 2 -2 1 0.000663499 0.000576313 -0.00332946 6.88198 -34.3037 -15.3768 
8127 508 3 1.008 0.03 10.8243 10.435 5.01096 109.189 10.435 152.558 2 0 3 0.0152439 0.0235828 -0.00307549 0.208278 -12.7358 0.113813 
1647 103 3 1.008 0.03 16.3087 9.09852 5.43532 -131.238 9.09852 54.6177 -3 0 1 -0.0017199 0.0107796 -0.000145003 -9.91108 18.9629 -15.1213 
8128 508 3 1.008 0.03 9.45999 9.48873 5.42049 107.825 9.48873 152.968 2 0 3 0.0197509 0.00245383 -0.00153002 -21.2823 -5.14391 10.5091 
8118 508 2 12.01 0.11 10.4965 9.39955 5.23261 108.861 9.39955 152.78 2 0 3 0.00215422 0.00504055 -0.00306362 31.8184 -19.946 -34.7705 
8122 508 3 1.008 0.03 12.3711 9.58676 3.63141 110.736 9.58676 151.178 2 0 3 -0.00809456 -0.00257138 -0.019243 8.44103 15.4919 3.48746 
1648 103 3 1.008 0.03 14.6598 9.7973 5.40811 -132.887 9.7973 54.5905 -3 0 1 0.00206454 0.0169708 0.00524564 8.10665 0.982174 -7.94525 
8113 508 1 16 -0.4 11.2739 9.00759 1.66763 109.639 9.00759 149.215 2 0 3 0.00411335 -0.0012823 0.00488298 3.7029 -0.572639 -1.21292 
1638 103 2 12.01 0.11 15.7289 10.0563 5.33095 -131.818 10.0563 54.5133 -3 0 1 0.00235365 -0.000824249 -0.0125488 -5.43442 2.85148 4.13778 
9435 590 3 1.008 0.03 13.1626 11.1034 1.25072 62.3449 11.1034 99.6154 1 0 2 0.0070744 -0.00182598 -0.0220766 22.7494 -11.5169 4.24004 
1646 103 3 1.008 0.03 15.8918 10.6985 4.42367 -131.655 10.6985 53.606 -3 0 1 0.00711865 -0.0112729 -0.0244097 3.19942 -23.3856 11.728 
9437 590 3 1.008 0.03 14.8916 11.3601 0.823985 64.074 11.3601 99.1887 1 0 2 0.0170615 -0.00730029 -0.0146899 1.82541 3.84185 -3.55322 
8126 508 3 1.008 0.03 11.0677 9.0081 6.07851 109.432 9.0081 153.626 2 0 3 -0.0122921 -0.00397685 0.0150917 -7.82944 6.93685 6.45558 
5322 333 3 1.008 0.03 10.1499 13.1659 6.12832 59.3322 111.531 104.493 1 2 2 0.0203767 -0.0125171 0.00414193 5.69666 -11.2756 -7.9012 
2991 187 3 1.008 0.03 14.0634 15.3173 2.77931 63.2457 15.3173 101.144 1 0 2 -7.49995e-05 0.00573146 -0.0101231 22.7719 -26.4527 26.0546 
1092 69 2 12.01 0.14 9.14036 11.8414 2.4913 107.505 11.8414 -95.8734 2 0 -2 0.000432001 0.000169366 0.00440195 -27.4816 11.8586 -6.1899 
1097 69 3 1.008 0.03 9.60389 12.1587 3.45742 107.969 12.1587 -94.9073 2 0 -2 -0.015311 0.000387101 0.00174553 -8.1159 -18.8377 -10.8177 
1098 69 3 1.008 0.03 9.43755 10.8836 2.05612 107.802 10.8836 -96.3086 2 0 -2 -0.0154162 0.00774291 0.00529515 5.21878 -4.19241 18.0446 
1090 69 1 16 -0.4 9.63634 12.7805 1.55628 108.001 12.7805 -96.8084 2 0 -2 0.00189888 0.00452072 0.00317484 -29.9087 4.60021 0.269221 
2978 187 1 16 -0.4 15.8742 15.42 3.54728 65.0565 15.42 101.912 1 0 2 -0.00406452 -0.00204603 0.00386549 27.4345 24.701 -10.1882 
1103 69 3 1.008 0.03 11.5939 13.0702 2.36092 109.959 13.0702 -96.0038 2 0 -2 -0.000925619 0.000123501 0.00630767 -11.33 -4.67706 9.51814 
1094 69 2 12.01 0.11 11.0113 12.9322 1.45165 109.376 12.9322 -96.913 2 0 -2 0.00823046 0.00303777 0.00262047 18.977 53.3891 11.943 
1104 69 3 1.008 0.03 11.5476 12.2096 0.910312 109.912 12.2096 -97.4544 2 0 -2 -0.00845963 -0.00124377 -0.01606 -4.2662 -14.6857 -22.9774 
2982 187 2 12.01 0.11 14.6559 14.7966 3.61992 63.8382 14.7966 101.985 1 0 2 0.0044741 -0.00151837 0.00102745 -59.9623 31.4903 -47.5304 
2990 187 3 1.008 0.03 14.0254 15.0931 4.44104 63.2078 15.0931 102.806 1 0 2 0.0181467 -0.00313232 0.00370285 3.98896 -4.78355 16.8028 
5316 333 2 12.01 0.14 9.49455 13.9273 6.4961 58.6769 112.292 104.861 1 2 2 0.00391295 -0.00947655 0.00581623 7.62564 -7.52033 24.9268 
5326 333 3 1.008 0.03 10.1163 14.9368 4.08274 59.2987 113.301 102.447 1 2 2 0.024784 -0.00228062 0.010657 14.4845 -7.74254 -7.52761 
5318 333 2 12.01 0.11 9.42907 15.4446 4.71832 58.6114 113.809 103.083 1 2 2 -0.00526165 0.00493029 -0.00216369 -24.5414 26.9486 -18.8821 
5314 333 1 16 -0.4 8.74722 14.4436 5.49447 57.9296 112.808 103.859 1 2 2 -0.00757095 0.000863847 0.000127619 -14.179 35.9104 -37.0307 
2985 187 3 1.008 0.03 16.2785 14.5975 5.32805 65.4608 14.5975 103.693 1 0 2 -0.00768553 0.0356563 -0.00762933 7.84906 9.16036 13.8911 
2595 163 2 12.01 0.14 13.9688 16.169 7.31175 13.9688 -82.1957 105.676 0 -2 2 0.00324291 0.00786535 0.00114778 30.9997 -9.42736 5.54324 
2600 163 3 1.008 0.03 14.9419 15.8992 6.87517 14.9419 -82.4655 105.24 0 -2 2 0.0283285 0.00402567 -0.0227179 -7.10558 1.71473 3.19421 
1634 103 1 16 -0.4 15.9588 10.8776 6.45391 -131.588 10.8776 55.6363 -3 0 1 -0.00250283 0.00554454 -0.0015756 14.3404 -6.82675 1.15974 
5327 333 3 1.008 0.03 8.69661 15.9312 3.96673 57.879 114.296 102.331 1 2 2 0.00548876 0.015753 0.000579427 26.7112 -15.9084 33.6726 
5328 333 3 1.008 0.03 10.0165 16.2454 5.264 59.1988 114.61 103.629 1 2 2 -0.00637198 0.00724566 0.0262968 -19.9758 -20.952 -7.53613 
5321 333 3 1.008 0.03 10.1527 14.64 6.96676 59.335 113.005 105.331 1 2 2 -0.0050488 -0.0344362 -0.00319324 -0.222351 6.71744 5.39404 
9436 590 3 1.008 0.03 14.2129 9.77176 0.751945 63.3952 9.77176 99.1166 1 0 2 -0.0339894 -0.000963116 0.00780308 5.10781 -33.7937 14.9624 
9429 590 2 12.01 0.11 14.0013 10.7771 0.607897 63.1836 10.7771 98.9726 1 0 2 -0.000551988 -0.0107834 0.000530089 -26.7803 33.3901 -4.60361 
2992 187 3 1.008 0.03 14.625 13.7425 3.41848 63.8074 13.7425 101.783 1 0 2 0.00451268 0.0310502 -0.0105062 4.82988 -12.1956 1.96828 
2593 163 1 16 -0.4 13.1601 14.9947 7.31984 13.1601 -83.37 105.685 0 -2 2 0.000993266 0.00254577 8.00179e-05 -4.6572 -13.3763 -1.54633 
7693 481 3 1.008 0.03 12.8252 11.1579 7.23753 12.8252 158.705 7.23753 0 3 0 -0.0197941 0.0270495 -0.00478988 -12.6171 6.54557 -23.9517 
1102 69 3 1.008 0.03 11.1043 13.955 1.00379 109.469 13.955 -97.3609 2 0 -2 0.0211146 -0.00185124 0.0312002 4.4168 -24.0481 -2.12394 
9150 572 3 1.008 0.03 24.2814 13.1479 1.33551 122.646 62.3302 1.33551 2 1 0 -0.0135741 -0.00970705 -0.0200986 -0.954476 16.5616 -27.1649 
2880 180 3 1.008 0.03 24.4101 12.0655 4.95548 24.4101 110.43 -44.2269 0 2 -1 0.0325478 0.00867285 -0.00799419 2.07539 2.06006 1.75971 
4023 252 3 1.008 0.03 23.6228 8.85724 2.7658 23.6228 58.0396 51.9482 0 1 1 0.00951336 0.00826719 -0.0339658 41.5174 -23.7027 11.9026 
4026 252 3 1.008 0.03 22.318 9.62779 4.40575 22.318 58.8101 53.5881 0 1 1 -0.00235896 -0.00257802 -0.0171127 -1.69839 0.781711 -1.65503 
4019 252 2 12.01 0.14 22.8665 9.36626 2.30635 22.8665 58.5486 51.4887 0 1 1 0.00463074 0.00122302 -0.00326495 -39.0451 26.6071 3.85613 
1641 103 3 1.008 0.03 17.8872 11.6934 6.59917 -129.66 11.6934 55.7815 -3 0 1 -0.00267072 0.0119952 -0.0229519 11.2293 14.5143 -15.4244 
4020 252 2 12.01 0.14 21.8235 9.44802 3.44624 21.8235 58.6304 52.6286 0 1 1 -0.00460346 0.00678292 -0.00706121 -12.6107 -34.2523 -2.38503 
4682 293 3 1.008 0.03 19.9863 9.24555 0.547748 -29.196 58.4279 49.7301 -1 1 1 0.00414147 0.00564889 0.0139753 10.746 -12.7435 -0.749314 
7975 499 3 1.008 0.03 22.1135 15.3262 7.03563 -76.2512 -83.0385 56.218 -2 -2 1 -0.00248934 -0.0055178 -0.00534588 -15.1384 0.709245 -9.58087 