ITEM: TIMESTEP
1700000
ITEM: NUMBER OF ATOMS
10479
ITEM: BOX BOUNDS pp pp pp
4.0882558190751794e-01 4.9591174418091420e+01
4.0882558190751794e-01 4.9591174418091420e+01
4.0882558190751794e-01 4.9591174418091420e+01
ITEM: ATOMS id mol type mass q x y z xu yu zu ix iy iz vx vy vz fx fy fz 
2162 136 1 16 -0.4 5.74264 5.07783 6.11142 104.107 5.07783 6.11142 2 0 0 -0.000502207 -0.00324564 0.00527442 21.4179 0.80008 -12.7834 
2166 136 2 12.01 0.11 6.22133 6.42329 6.05831 104.586 6.42329 6.05831 2 0 0 -0.00507108 -0.00374337 0.00358743 -25.3964 40.6797 -34.8338 
2170 136 3 1.008 0.03 7.3213 4.38814 4.87427 105.686 4.38814 4.87427 2 0 0 -0.008002 0.0261871 0.00397351 12.3359 -6.28147 7.99892 
2176 136 3 1.008 0.03 7.22516 6.70522 6.32591 105.59 6.70522 6.32591 2 0 0 -0.00840738 0.012391 -0.0143925 12.3892 -15.9614 8.19096 
2164 136 2 12.01 0.14 6.26206 4.29051 5.03948 104.627 4.29051 5.03948 2 0 0 -0.00823803 0.00590649 0.00456841 -16.4023 -4.68757 9.91287 
2169 136 3 1.008 0.03 5.9352 3.25728 5.20723 104.3 3.25728 5.20723 2 0 0 -0.0169212 -0.00995308 0.00189656 11.9571 1.42777 5.37397 
2163 136 2 12.01 0.14 5.57891 4.66424 3.77075 103.944 4.66424 3.77075 2 0 0 -0.00213826 -0.00334541 0.00499588 -52.9518 68.9601 -10.2179 
2161 136 1 16 -0.4 6.29311 5.7306 3.10513 104.658 5.7306 3.10513 2 0 0 0.000928183 -0.00259303 -0.00122252 25.6454 -30.1094 30.0094 
2167 136 3 1.008 0.03 4.5152 5.09835 4.03964 102.88 5.09835 4.03964 2 0 0 -0.0205391 -0.00955812 0.0117655 51.4609 -33.7104 -21.2637 
9049 566 3 1.008 0.03 2.4137 8.59576 4.11702 51.596 -40.5866 -94.2477 1 -1 -2 -0.00412501 0.0145577 -0.0052627 -9.94196 -7.51474 8.84228 
9056 566 3 1.008 0.03 1.65455 5.91102 6.08059 50.8369 -43.2713 -92.2841 1 -1 -2 -0.0276793 0.00528732 -0.00110341 -40.5614 8.01077 25.5942 
9254 579 2 12.01 0.11 3.41511 1.13098 4.24706 150.962 -97.2337 53.4294 3 -2 1 0.0111837 0.00308906 0.000572408 6.92037 -14.1515 32.1756 
2168 136 3 1.008 0.03 5.57523 3.85777 3.0643 103.94 3.85777 3.0643 2 0 0 0.0146288 -0.0129845 0.0286997 -9.4783 -12.9077 -5.17473 
9264 579 3 1.008 0.03 2.7801 1.88538 4.60124 150.327 -96.4793 53.7836 3 -2 1 0.00529132 -0.00877496 -0.0282295 -5.2333 33.7108 5.62301 
9263 579 3 1.008 0.03 4.26136 1.42744 3.67001 151.808 -96.9373 52.8524 3 -2 1 -0.00190407 0.00319707 0.00709195 7.32735 15.2336 -8.45975 
9252 579 2 12.01 0.14 1.98964 0.791425 2.43501 149.537 -97.5733 51.6174 3 -2 1 -0.00635387 0.0116846 0.00158153 -16.6519 -14.2286 -22.8667 
926 58 3 1.008 0.03 3.20376 2.72122 6.85434 101.568 2.72122 6.85434 2 0 0 -0.0167035 -0.0484221 -0.00237007 28.7022 18.3746 -27.0132 
9055 566 3 1.008 0.03 3.17753 6.86228 5.9052 52.3599 -42.3201 -92.4595 1 -1 -2 0.00349681 0.013682 0.0253768 -18.4533 -11.0075 -4.39957 
2174 136 3 1.008 0.03 5.99394 7.09699 5.1587 104.359 7.09699 5.1587 2 0 0 -5.6229e-05 0.0149778 -0.00988995 3.45791 -36.5365 21.1466 
2175 136 3 1.008 0.03 5.5669 6.8842 6.75226 103.932 6.8842 6.75226 2 0 0 0.00394696 0.000247064 -0.0140047 -4.06727 8.54565 17.4495 
9262 579 3 1.008 0.03 3.80955 0.664931 5.1493 151.357 -97.6998 54.3317 3 -2 1 -0.00313873 -0.00441717 0.0221131 0.450111 -3.37356 -1.17129 
9046 566 2 12.01 0.11 2.40543 6.19434 5.44093 51.5878 -42.988 -92.9238 1 -1 -2 -0.00501825 0.000821273 0.0016731 37.9146 34.3857 -51.9313 
9054 566 3 1.008 0.03 2.8454 5.22773 5.37972 52.0277 -43.9546 -92.985 1 -1 -2 -0.015663 0.0105826 0.0121113 13.105 -11.7836 -7.82279 
9042 566 1 16 -0.4 2.03449 6.65444 4.07842 51.2168 -42.5279 -94.2863 1 -1 -2 0.00299005 -0.00182428 -0.00194434 8.37324 -57.1005 39.2092 
3680 230 3 1.008 0.03 2.75185 3.67477 2.13696 51.9342 3.67477 51.3193 1 0 1 -0.00952732 0.0175686 0.0157134 -2.23698 0.115654 -1.94951 
9257 579 3 1.008 0.03 2.81373 1.33319 1.9354 150.361 -97.0315 51.1177 3 -2 1 0.026317 -0.0206347 -0.00942282 -14.0693 -6.76923 -8.73934 
9258 579 3 1.008 0.03 1.15613 1.47387 2.64976 148.703 -96.8908 51.8321 3 -2 1 -0.0225154 -0.00430784 -0.000651045 10.5937 4.08065 1.64235 
2155 135 3 1.008 0.03 8.21776 1.6278 5.24314 8.21776 50.8102 103.608 0 1 2 0.0443424 -0.0294994 -0.000201877 31.092 9.7576 -10.5282 
2156 135 3 1.008 0.03 7.95931 2.02519 3.70683 7.95931 51.2075 102.072 0 1 2 0.039189 -0.0325087 0.0312929 -27.1265 29.8838 -36.0899 
3678 230 3 1.008 0.03 2.3678 5.21736 1.46388 51.5501 5.21736 50.6462 1 0 1 0.00594418 -0.00278231 0.00201426 -1.50631 18.3752 5.34551 
2873 180 3 1.008 0.03 7.75752 8.46856 2.24178 7.75752 57.6509 -46.9406 0 1 -1 -0.0067584 -0.00290332 0.0115995 -7.60598 -7.49707 -8.895 
2172 136 3 1.008 0.03 4.82641 6.97065 2.67162 103.191 6.97065 2.67162 2 0 0 -0.00106682 0.0126981 -0.00936269 -2.87054 13.6304 4.43624 
3670 230 2 12.01 0.11 2.4149 4.1806 1.22868 51.5972 4.1806 50.411 1 0 1 0.00759015 -0.00213015 0.00565428 12.8987 -28.3137 -10.6194 
9041 566 1 16 -0.4 2.15082 8.17222 1.67866 51.3332 -41.0101 -96.686 1 -1 -2 0.00805593 -0.000500387 0.00635558 -37.4808 -1.1097 24.5811 
9043 566 2 12.01 0.14 1.01907 8.2785 2.62528 50.2014 -40.9038 -95.7394 1 -1 -2 -0.0156985 -0.00360813 -0.00254715 28.3672 -20.8283 -12.7557 
9044 566 2 12.01 0.14 1.53903 7.92215 4.02382 50.7214 -41.2602 -94.3409 1 -1 -2 -0.00103758 0.00207216 -0.0100629 4.2957 63.9553 7.26955 
9050 566 3 1.008 0.03 0.832488 8.20732 4.84112 50.0148 -40.975 -93.5236 1 -1 -2 -0.0274795 0.0277829 -0.018393 7.6589 -11.1754 -13.8942 
5402 338 3 1.008 0.03 7.10461 0.67876 1.60278 56.287 99.0435 1.60278 1 2 0 -0.00463275 -0.00300827 -0.0509291 15.7583 -8.03579 -11.4644 
2173 136 3 1.008 0.03 6.14874 7.01954 1.55229 104.513 7.01954 1.55229 2 0 0 -0.00452971 -0.011104 0.0176404 17.9195 17.9228 -17.9108 
2171 136 3 1.008 0.03 4.92783 5.74031 1.5358 103.293 5.74031 1.5358 2 0 0 -0.00954576 -0.00720907 -0.00994123 16.8081 2.52419 1.9005 
2165 136 2 12.01 0.11 5.57296 6.39416 2.15666 103.938 6.39416 2.15666 2 0 0 -0.00342435 0.002412 -2.40541e-05 -59.3224 -18.2098 -10.6376 
2158 135 3 1.008 0.03 7.74436 4.07917 0.798314 7.74436 53.2615 99.163 0 1 2 -0.00566535 0.026762 -0.00404917 9.76621 -23.6099 -24.8483 
3679 230 3 1.008 0.03 1.38501 3.83599 0.979155 50.5674 3.83599 50.1615 1 0 1 0.00732001 0.00379747 0.00562377 15.2714 2.37833 4.24856 
2148 135 2 12.01 0.14 9.75742 3.42113 1.91966 9.75742 52.6035 100.284 0 1 2 -0.00186494 0.00134606 -0.00147046 -7.96424 -25.6467 -15.5031 
2149 135 2 12.01 0.11 8.77354 1.79959 4.2764 8.77354 50.9819 102.641 0 1 2 0.0023839 0.006516 0.000213195 -15.7413 -68.223 25.6414 
2157 135 3 1.008 0.03 9.01962 0.810269 3.85081 9.01962 49.9926 102.216 0 1 2 -0.00607347 -0.00731493 -0.000790166 8.67518 10.5853 14.6015 
2152 135 3 1.008 0.03 11.0537 1.77184 2.49743 11.0537 50.9542 100.862 0 1 2 -0.00148807 -0.00841681 0.0148308 -10.2844 0.0395786 10.514 
2147 135 2 12.01 0.14 10.5771 2.67067 2.92425 10.5771 51.853 101.289 0 1 2 0.000952153 -0.00257966 0.00452926 13.9839 15.1094 28.1037 
2867 180 2 12.01 0.14 9.43878 7.49217 3.14296 9.43878 56.6745 -46.0394 0 1 -1 -0.0010869 0.000540711 0.0041986 21.1674 -1.33568 -37.248 
2865 180 1 16 -0.4 10.2269 7.81138 4.21875 10.2269 56.9937 -44.9636 0 1 -1 -0.00249228 -0.00212426 -0.00845999 31.3024 6.06626 18.8108 
2869 180 2 12.01 0.11 11.2129 6.80989 4.45376 11.2129 55.9922 -44.7286 0 1 -1 -0.000668429 -0.00571439 -0.000594161 18.7995 -18.1277 -32.0093 
2875 180 3 1.008 0.03 10.8036 5.81323 4.33083 10.8036 54.9956 -44.8515 0 1 -1 0.00168689 0.0110069 0.0417475 -9.16686 -4.23279 17.5176 
5123 321 2 12.01 0.14 13.2077 1.75142 5.24578 13.2077 50.9338 5.24578 0 1 0 0.00330248 0.0032724 0.000440016 28.106 -24.4194 52.798 
2877 180 3 1.008 0.03 11.7559 6.91539 5.38964 11.7559 56.0977 -43.7927 0 1 -1 0.000969737 0.0145031 -0.00248306 -3.20239 1.01019 1.42689 
5128 321 3 1.008 0.03 12.2686 2.03698 5.68312 12.2686 51.2193 5.68312 0 1 0 0.00777108 -0.00949685 -0.00291052 -9.67077 15.1755 -2.51348 
2872 180 3 1.008 0.03 8.76721 6.84594 3.58738 8.76721 56.0283 -45.595 0 1 -1 0.0277063 0.0159762 -0.00139255 -26.6573 -31.6923 7.39409 
2871 180 3 1.008 0.03 10.0063 6.92368 2.32946 10.0063 56.106 -46.8529 0 1 -1 -0.00592965 0.00190746 -0.00512508 -21.9352 25.4975 15.7026 
5124 321 2 12.01 0.14 14.4159 2.2458 6.04272 14.4159 51.4281 6.04272 0 1 0 -0.00623933 -0.00414306 0.00309729 -22.3668 -17.9168 54.9556 
5127 321 3 1.008 0.03 13.3897 2.03442 4.27693 13.3897 51.2168 4.27693 0 1 0 0.0175116 -0.0291509 -0.00847279 -8.33253 13.8668 -44.5223 
5129 321 3 1.008 0.03 15.2982 1.72208 5.76875 15.2982 50.9044 5.76875 0 1 0 0.021733 -0.0285036 -0.00704989 15.8569 -4.36572 -19.5281 
2876 180 3 1.008 0.03 11.9602 6.6799 3.62936 11.9602 55.8623 -45.553 0 1 -1 -0.0362516 0.0356333 -0.018233 -9.51432 19.663 15.0821 
2193 138 1 16 -0.4 15.1451 6.1135 2.14896 64.3275 55.2958 -96.2157 1 1 -2 0.000566222 0.000629696 -0.00139624 3.79523 -16.3837 21.2064 
2197 138 2 12.01 0.11 15.2768 5.56013 3.46455 64.4592 54.7425 -94.9001 1 1 -2 -0.00407606 0.00974528 0.00465501 32.7964 44.4441 -28.1235 
2205 138 3 1.008 0.03 14.4364 4.98355 3.70061 63.6187 54.1659 -94.6641 1 1 -2 -0.00643507 0.0257032 -0.000280738 -20.0428 -21.0539 16.3835 
2151 135 3 1.008 0.03 11.427 3.35443 3.13181 11.427 52.5368 101.497 0 1 2 -0.0110296 0.0133752 0.00270877 -7.82093 -11.7533 -1.04784 
2204 138 3 1.008 0.03 15.3741 6.4025 4.14197 64.5564 55.5849 -94.2227 1 1 -2 -0.00109521 -0.00404828 -0.00249234 -3.88561 0.0389283 6.00369 
2203 138 3 1.008 0.03 16.2427 5.05309 3.49846 65.4251 54.2354 -94.8662 1 1 -2 -0.000239212 0.00702097 0.0121409 -9.85152 -7.59773 2.0645 
2145 135 1 16 -0.4 9.89565 2.60878 4.20703 9.89565 51.7911 102.572 0 1 2 -0.00319535 0.00289769 -0.000908912 24.8675 14.7324 -6.98035 
9642 604 8 19 -0.16 15.9232 8.522 6.90954 15.9232 57.7043 6.90954 0 1 0 -0.00166689 -0.00173274 -0.00131598 1.20195 3.8735 9.58196 
9641 604 7 12.01 0.35 14.6336 8.30948 7.11129 14.6336 57.4918 7.11129 0 1 0 -0.00908404 -0.00369097 0.0049257 -23.7556 11.0482 14.7375 
2200 138 3 1.008 0.03 13.5327 5.0996 1.43669 62.715 54.2819 -96.928 1 1 -2 -0.0121181 -0.0235482 0.0071711 2.40964 -1.52237 2.50603 
9644 604 8 19 -0.16 14.0205 8.536 5.98298 14.0205 57.7183 5.98298 0 1 0 0.0003833 0.00501239 -0.00120223 0.278064 -9.24163 -24.8017 
2195 138 2 12.01 0.14 14.6201 5.10712 1.31093 63.8025 54.2895 -97.0538 1 1 -2 -0.00267315 -0.0011612 0.006495 -9.92416 -40.3586 2.08813 
4955 310 3 1.008 0.03 13.6235 8.47553 2.12267 62.8058 8.47553 2.12267 1 0 0 -0.0277279 0.00758708 -0.0134555 -3.57442 -9.03418 -0.0104467 
2199 138 3 1.008 0.03 14.9522 4.01195 1.53637 64.1345 53.1943 -96.8283 1 1 -2 0.0065606 -0.00369802 0.000762968 -7.53204 52.1583 -8.72925 
7580 474 3 1.008 0.03 16.1233 2.10031 1.48658 16.1233 -47.082 -47.6958 0 -1 -1 -0.0011163 0.00975945 -0.0331196 8.97055 0.0085912 -2.15771 
2154 135 3 1.008 0.03 10.4321 3.88308 1.24954 10.4321 53.0654 99.6142 0 1 2 0.00203089 -0.0168695 -0.022344 12.8552 20.4307 -9.94056 
2153 135 3 1.008 0.03 9.06742 4.12139 2.3587 9.06742 53.3037 100.723 0 1 2 0.00258025 -0.00196126 -0.00512346 2.62148 11.1578 11.6668 
5130 321 3 1.008 0.03 14.5672 3.30336 5.88309 14.5672 52.4857 5.88309 0 1 0 -0.0203223 0.00977893 0.0102084 0.293229 6.34981 0.935831 
7808 488 3 1.008 0.03 15.9282 8.31038 0.584868 65.1106 8.31038 0.584868 1 0 0 -0.0329896 0.0112875 -0.00787072 -44.5636 4.19013 -3.39382 
9639 604 6 16 -0.53 14.8205 5.65294 7.05508 14.8205 54.8353 7.05508 0 1 0 0.000102818 0.00164201 0.00405008 9.75378 11.4088 -21.9749 
2146 135 1 16 -0.4 9.07321 2.50535 1.08954 9.07321 51.6877 99.4542 0 1 2 -0.00508087 -0.00142087 0.000194635 -2.26274 -5.23615 13.0388 
5071 317 3 1.008 0.03 21.9994 6.91352 1.34305 21.9994 105.278 1.34305 0 2 0 -0.0191078 0.028493 0.0322293 15.346 8.62856 0.599461 
4817 302 1 16 -0.4 23.1285 1.10834 2.48693 170.676 -48.074 -46.6954 3 -1 -1 -0.00650859 -0.00284681 -0.000308198 -10.474 11.9316 1.66942 
170 11 3 1.008 0.03 18.1606 5.8833 5.66999 116.525 55.0656 104.035 2 1 2 0.0385309 -0.0103889 -0.00169413 13.4554 -9.27129 26.696 
168 11 3 1.008 0.03 20.7054 6.43402 5.37946 119.07 55.6164 103.744 2 1 2 -0.0191418 -0.00426624 9.35368e-05 -9.33553 -6.77968 19.1679 
4821 302 2 12.01 0.11 24.1786 1.52335 3.36181 171.726 -47.659 -45.8205 3 -1 -1 -0.00425739 0.00512784 -0.00347671 19.4183 37.2545 -23.2806 
164 11 2 12.01 0.14 18.9123 5.35727 6.33535 117.277 54.5396 104.7 2 1 2 -0.000759855 0.00441756 0.00716117 -9.40278 17.0028 -62.56 
4819 302 2 12.01 0.14 21.9678 1.96816 2.59481 169.515 -47.2142 -46.5875 3 -1 -1 -0.00136711 0.00589686 -0.00710394 3.47281 -12.5541 -24.7926 
175 11 3 1.008 0.03 18.4502 2.33345 4.80946 116.815 51.5158 103.174 2 1 2 -0.0064695 -0.00121708 0.00646771 12.8833 -12.7647 1.38382 
4829 302 3 1.008 0.03 24.5774 2.59553 3.13014 172.124 -46.5868 -46.0522 3 -1 -1 0.0116906 0.00747527 -0.00880627 -22.0818 -45.6499 12.4491 
162 11 1 16 -0.4 19.2125 4.2266 5.51212 117.577 53.4089 103.877 2 1 2 0.00365883 0.00492975 -0.00614934 -13.531 -35.3423 6.54282 
166 11 2 12.01 0.11 18.1234 3.26376 5.22207 116.488 52.4461 103.587 2 1 2 0.000361504 -0.00472538 0.00243564 17.1098 54.9387 -38.2023 
4823 302 3 1.008 0.03 21.5969 2.0584 3.59081 169.144 -47.1239 -45.5915 3 -1 -1 0.00190894 0.0146571 -0.00352445 4.85847 0.892446 19.8998 
176 11 3 1.008 0.03 17.4129 3.0666 5.97175 115.778 52.2489 104.336 2 1 2 -0.0148517 0.0335306 -0.0392938 -10.6979 -0.481761 25.8418 
351 22 3 1.008 0.03 20.1042 5.90907 3.07223 69.2865 5.90907 150.619 1 0 3 0.0230327 -0.00897267 0.0140668 3.34196 3.24795 13.6001 
174 11 3 1.008 0.03 17.5592 3.68263 4.3553 115.924 52.865 102.72 2 1 2 0.00469615 -0.00928149 0.0219809 8.73379 -6.28121 19.6032 
350 22 3 1.008 0.03 18.3496 6.3061 3.13181 67.532 6.3061 150.679 1 0 3 -0.0165847 0.000818942 -0.0161035 -1.8931 -4.73787 -0.0800882 
342 22 2 12.01 0.11 19.3228 6.58099 2.73583 68.5052 6.58099 150.283 1 0 3 -0.00234868 -0.00374453 -0.0109044 -1.90758 9.04594 -11.6338 
352 22 3 1.008 0.03 19.4796 7.63935 2.96745 68.662 7.63935 150.514 1 0 3 0.0234638 0.00539096 0.0126447 7.14964 -7.26707 10.0169 
172 11 3 1.008 0.03 21.5965 4.12473 6.36315 119.961 53.3071 104.728 2 1 2 0.0168063 -0.00433783 0.0271651 0.632751 -7.49357 6.85089 
163 11 2 12.01 0.14 20.1932 6.2815 6.36806 118.558 55.4638 104.733 2 1 2 0.00697386 0.00373927 0.000738339 -42.3103 7.16262 -11.5343 
169 11 3 1.008 0.03 18.4401 5.09352 7.28183 116.805 54.2759 105.647 2 1 2 -0.00488222 -0.0114616 -0.0002936 3.85385 3.83995 1.01765 
3238 203 2 12.01 0.11 23.7648 8.03041 6.66754 72.9471 57.2128 105.032 1 1 2 0.00281172 -0.0047292 -0.0013301 -51.2516 -27.4859 60.7578 
165 11 2 12.01 0.11 22.0004 4.98181 6.89614 120.365 54.1642 105.261 2 1 2 0.00571842 -0.00415401 0.00358286 -16.9323 -18.6149 67.1049 
167 11 3 1.008 0.03 19.8153 7.27606 6.65315 118.18 56.4584 105.018 2 1 2 -0.0120885 0.00669663 -0.00642768 6.53201 -5.8474 -0.59806 
4824 302 3 1.008 0.03 22.2311 2.97002 2.25529 169.778 -46.2123 -46.9271 3 -1 -1 -0.00271682 0.00472745 -0.00529884 -1.13436 1.34431 0.878159 
7807 488 3 1.008 0.03 17.171 7.9931 1.71044 66.3533 7.9931 1.71044 1 0 0 0.000857511 -0.0110784 -0.00782342 -0.955691 2.45556 -15.4511 
7573 474 2 12.01 0.11 16.8697 2.10094 0.678242 16.8697 -47.0814 -48.5041 0 -1 -1 -0.0027732 0.00475031 -0.00668555 -13.741 -22.6942 -9.00542 
345 22 3 1.008 0.03 18.0448 5.04756 0.989599 67.2272 5.04756 148.537 1 0 3 -0.0292085 -0.00821512 -0.0092777 2.17058 2.78505 -1.78674 
4827 302 3 1.008 0.03 23.8108 1.4229 4.36422 171.358 -47.7594 -44.8181 3 -1 -1 0.0234984 -0.0281939 -0.00519059 -0.801065 6.99792 13.828 
4818 302 1 16 -0.4 20.3421 2.28116 0.647498 167.889 -46.9012 -48.5349 3 -1 -1 -0.00106081 -0.00266334 0.00194339 32.2447 -27.9705 7.87404 
5062 317 2 12.01 0.11 22.9676 7.35664 1.01406 22.9676 105.721 1.01406 0 2 0 -0.00584599 0.00859487 -0.00117761 -23.1023 -13.2935 -12.03 
3248 203 3 1.008 0.03 23.8752 7.33808 5.84842 73.0576 56.5204 104.213 1 1 2 -0.0155496 -0.0143605 -0.026502 2.65882 4.43251 -14.2794 
161 11 1 16 -0.4 20.9826 5.81528 7.40674 119.347 54.9976 105.771 2 1 2 0.00184035 0.0066976 0.00440249 17.2606 4.10051 -4.924 
338 22 1 16 -0.4 19.3903 6.55493 1.33593 68.5726 6.55493 148.883 1 0 3 0.00219854 0.00422502 0.00578655 -1.69892 7.45838 -14.4352 
5072 317 3 1.008 0.03 23.2415 8.17398 1.67889 23.2415 106.539 1.67889 0 2 0 -0.0145452 -0.0159819 -0.0117234 -0.028682 2.72849 -1.49079 
7581 474 3 1.008 0.03 17.8588 1.93657 1.10304 17.8588 -47.2458 -48.0793 0 -1 -1 0.016985 -0.00688845 0.00655962 -0.484522 -0.7387 -1.10187 
346 22 3 1.008 0.03 19.6666 4.47915 1.35078 68.849 4.47915 148.898 1 0 3 0.00298193 0.00247374 -0.00614077 -16.9092 35.2593 -32.102 
5058 317 1 16 -0.4 23.9633 6.34969 0.975365 23.9633 104.714 0.975365 0 2 0 0.000111775 -0.00155772 -0.00563756 11.1643 8.75355 5.17513 
7798 488 2 12.01 0.11 16.9298 8.45504 0.729304 66.1122 8.45504 0.729304 1 0 0 -0.00302704 0.00318165 0.00039192 65.5327 19.275 17.454 
340 22 2 12.01 0.14 19.0876 5.29958 0.768316 68.27 5.29958 148.315 1 0 3 -0.000253579 0.000198057 0.013009 9.93351 -43.036 49.8826 
4820 302 2 12.01 0.14 20.7442 1.43052 1.79822 168.291 -47.7518 -47.3841 3 -1 -1 0.0060369 -0.00774798 0.004277 0.927785 27.3046 -57.4347 
4826 302 3 1.008 0.03 19.8714 1.58167 2.36995 167.418 -47.6007 -46.8124 3 -1 -1 0.0252554 -0.0100572 0.00250927 -17.1597 -7.89759 21.4149 
3247 203 3 1.008 0.03 22.6583 8.14362 6.95242 71.8406 57.326 105.317 1 1 2 0.0144399 0.00678664 0.0158408 36.311 -10.3211 -14.1271 
173 11 3 1.008 0.03 22.6877 5.43168 6.26227 121.052 54.614 104.627 2 1 2 -0.00687222 0.0229861 -0.0419896 23.8515 20.3632 -16.6988 
1953 123 1 16 -0.4 0.427642 14.0699 0.994117 0.427642 14.0699 -48.1882 0 0 -1 -0.00156393 0.00514403 -0.000791486 -2.78111 -6.15764 21.83 
8746 547 3 1.008 0.03 1.94295 16.7172 1.29486 100.308 -81.6475 50.4772 2 -2 1 -0.0353312 -0.0103666 0.0018538 -22.0869 5.57769 -1.85496 
8750 547 3 1.008 0.03 3.34764 14.0724 0.527189 101.712 -84.2923 49.7095 2 -2 1 0.0157042 0.0053949 -0.0128914 12.2039 7.25607 -18.7685 
876 55 3 1.008 0.03 5.94613 13.9087 2.59523 -43.2362 -35.2737 2.59523 -1 -1 0 -0.0261634 -0.00420952 0.0161934 -16.1518 -22.2113 -20.7407 
875 55 3 1.008 0.03 6.26456 12.1432 2.48045 -42.9178 -37.0391 2.48045 -1 -1 0 -0.00255681 0.0268848 -0.0106239 -25.4005 24.6197 -11.1234 
9047 566 3 1.008 0.03 0.510507 9.22442 2.64648 49.6929 -39.9579 -95.7182 1 -1 -2 -0.0227489 -0.0163502 0.0115827 4.64045 15.7271 -3.84837 
9875 619 8 19 -0.16 4.31761 9.9878 4.92309 4.31761 59.1701 4.92309 0 1 0 -0.00283082 -0.00862348 0.00193165 -12.0907 -9.94866 -10.7594 
9873 619 7 12.01 0.35 3.93111 11.2384 5.06692 3.93111 60.4207 5.06692 0 1 0 0.00214899 -0.00232714 -0.00312396 26.8217 -4.63074 45.8998 
9876 619 8 19 -0.16 2.74468 11.4337 4.56227 2.74468 60.6161 4.56227 0 1 0 -0.00173794 0.00146893 -0.00262248 -13.1617 -5.10047 -18.6994 
9870 619 5 32.06 1.02 3.94815 11.67 6.86404 3.94815 60.8524 6.86404 0 1 0 -0.000510651 0.00126297 0.00978018 -83.0594 -26.5738 23.3027 
9862 619 4 14.01 -0.66 5.16637 10.9198 7.40424 5.16637 60.1022 7.40424 0 1 0 -0.00388493 0.00321838 -0.000836958 43.5912 -18.1149 -21.7445 
9872 619 6 16 -0.53 2.66802 11.1235 7.3856 2.66802 60.3059 7.3856 0 1 0 -0.00601506 0.0085346 -0.000491338 46.0438 21.3875 -24.6372 
9871 619 6 16 -0.53 4.10307 13.0789 6.79686 4.10307 62.2613 6.79686 0 1 0 0.00312898 -0.00466976 0.0026415 6.48343 31.5514 6.45955 
9874 619 8 19 -0.16 4.8073 11.9469 4.39008 4.8073 61.1293 4.39008 0 1 0 -0.00174502 -0.00134451 0.00171786 1.0962 7.5093 -4.15637 
3819 239 3 1.008 0.03 4.85231 15.1043 4.53068 4.85231 15.1043 53.713 0 0 1 -0.0127056 0.00148175 0.0144024 9.15589 14.5681 -10.534 
3815 239 3 1.008 0.03 2.65302 14.8982 5.12139 2.65302 14.8982 54.3037 0 0 1 -0.0223716 0.00557607 0.0210677 -22.1944 -0.910156 -1.64668 
3821 239 3 1.008 0.03 5.22046 15.5478 6.07309 5.22046 15.5478 55.2554 0 0 1 0.0349964 -0.0253411 -0.00758758 -8.36769 14.8833 8.54368 
3816 239 3 1.008 0.03 2.86538 15.5668 6.62543 2.86538 15.5668 55.8078 0 0 1 -0.0144417 -0.00741085 -0.00873228 -0.199638 0.111342 40.8319 
8745 547 3 1.008 0.03 3.02981 15.6992 2.12111 101.395 -82.6654 51.3035 2 -2 1 0.0158201 -0.0183284 0.0124392 -1.45151 -13.2817 6.06804 
9861 618 8 19 -0.16 7.95843 14.8507 5.65816 57.1408 64.0331 5.65816 1 1 0 -0.00194373 -0.00508883 0.000596312 12.9576 19.2376 -23.2712 
2880 180 3 1.008 0.03 8.33786 11.4729 2.30837 8.33786 60.6553 -46.874 0 1 -1 -0.0070792 -0.0116404 -0.00303917 -8.32385 -1.25481 1.35617 
2874 180 3 1.008 0.03 8.22455 9.17752 3.75269 8.22455 58.3599 -45.4297 0 1 -1 -0.0146753 -0.00180294 0.0182979 14.3408 -5.23638 -28.6122 
3788 237 3 1.008 0.03 7.9874 11.4664 5.12832 7.9874 60.6487 5.12832 0 1 0 0.0141579 -0.0126385 0.0229463 -27.3364 -10.5756 -20.7657 
1965 123 3 1.008 0.03 1.26627 13.577 2.88288 1.26627 13.577 -46.2995 0 0 -1 0.0238371 0.0314864 0.010874 -4.15532 -6.98854 -13.6165 
3813 239 2 12.01 0.11 4.87969 16.0154 5.14662 4.87969 16.0154 54.329 0 0 1 0.000151053 0.00868621 0.00245811 -3.63308 -5.55424 -7.06306 
3817 239 3 1.008 0.03 0.982194 16.6395 4.52477 0.982194 16.6395 53.7071 0 0 1 -0.0161301 0.013953 -0.0101434 -4.92771 1.8359 -20.2943 
3812 239 2 12.01 0.14 1.28965 16.6292 5.53991 1.28965 16.6292 54.7223 0 0 1 0.00778338 0.000607275 -0.000614317 11.0841 22.4861 12.8514 
3811 239 2 12.01 0.14 2.5614 15.8355 5.6733 2.5614 15.8355 54.8556 0 0 1 0.00406699 0.00174588 0.0045033 33.6215 -7.49441 -41.0557 
3809 239 1 16 -0.4 3.57647 16.6083 5.06837 3.57647 16.6083 54.2507 0 0 1 -0.00578492 -0.00345584 0.0018041 13.35 0.0240492 15.3543 
877 55 3 1.008 0.03 4.52486 12.7184 2.32999 -44.6575 -36.464 2.32999 -1 -1 0 0.0136283 0.00163658 0.0090522 28.4498 8.77916 -8.39717 
872 55 3 1.008 0.03 7.60489 13.5896 0.944069 -41.5775 -35.5927 0.944069 -1 -1 0 0.00422871 0.0184549 0.0259257 28.7578 -2.92818 15.5951 
3818 239 3 1.008 0.03 0.519218 16.2252 6.10967 0.519218 16.2252 55.292 0 0 1 -0.00813111 0.0301629 0.00115847 -24.7434 -23.2286 13.5328 
1964 123 3 1.008 0.03 1.14981 12.1777 1.70782 1.14981 12.1777 -47.4745 0 0 -1 0.00521482 -0.00648228 -0.0263771 5.54712 12.6154 -2.02889 
865 55 1 16 -0.4 5.7722 12.9272 0.650386 -43.4101 -36.2552 0.650386 -1 -1 0 0.00428198 0.00383498 -0.00222927 -23.227 -2.27397 16.5191 
1957 123 2 12.01 0.11 0.690607 13.1205 2.04736 0.690607 13.1205 -47.135 0 0 -1 0.00391879 0.00395869 -0.00310896 4.825 -0.568033 -1.26583 
8740 547 2 12.01 0.14 2.97072 16.5084 1.42199 101.335 -81.8563 50.6043 2 -2 1 -0.00257792 0.00725639 -0.000454821 0.345111 -1.21875 25.6101 
869 55 2 12.01 0.11 5.59797 12.9663 2.05545 -43.5844 -36.2161 2.05545 -1 -1 0 0.00296022 0.00390693 -0.00253987 4.34255 -17.0746 40.1022 
2879 180 3 1.008 0.03 7.82462 10.2088 0.935362 7.82462 59.3912 -48.247 0 1 -1 0.00608433 0.00330469 0.000572531 9.91867 35.6356 17.0983 
2868 180 2 12.01 0.14 8.63729 8.7402 2.78769 8.63729 57.9225 -46.3947 0 1 -1 -0.00799921 0.00112761 -0.00545859 -4.96764 19.8423 24.8137 
2870 180 2 12.01 0.11 8.61837 10.7678 1.53328 8.61837 59.9501 -47.6491 0 1 -1 0.00163599 0.0057686 0.001976 4.07569 -66.6024 -12.6831 
4957 310 3 1.008 0.03 13.1401 9.97674 2.89799 62.3225 9.97674 2.89799 1 0 0 -0.0195838 0.00260344 -0.0114117 1.50416 -0.621345 0.776139 
4949 310 2 12.01 0.11 13.9901 9.4242 2.48456 63.1725 9.4242 2.48456 1 0 0 0.00274101 -0.000902467 0.00146983 6.7338 -19.3422 53.7976 
4956 310 3 1.008 0.03 14.6692 9.17584 3.3585 63.8515 9.17584 3.3585 1 0 0 -0.0311068 0.00141052 0.00488043 -13.294 9.04563 -26.1198 
2866 180 1 16 -0.4 9.4075 9.66786 2.01306 9.4075 58.8502 -47.1693 0 1 -1 0.000348581 0.000459627 -0.00393923 -10.4634 6.39563 13.3844 
3783 237 3 1.008 0.03 9.03064 9.12232 6.14552 9.03064 58.3047 6.14552 0 1 0 -0.0186796 -0.017373 0.0211175 23.0583 35.4139 7.5835 
3787 237 3 1.008 0.03 9.70083 11.6272 4.67509 9.70083 60.8096 4.67509 0 1 0 -0.013201 -0.0281565 0.00422401 6.94585 -6.14328 -25.4125 
3781 237 2 12.01 0.11 8.92865 11.8478 5.36323 8.92865 61.0302 5.36323 0 1 0 -0.0100076 0.00264517 -0.00266909 28.9742 2.50401 50.6426 
4945 310 1 16 -0.4 14.5962 10.1077 1.44047 63.7785 10.1077 1.44047 1 0 0 -0.00388774 -0.00439391 0.000976482 24.3735 16.9504 2.19236 
3789 237 3 1.008 0.03 8.89827 12.9544 5.37649 8.89827 62.1368 5.37649 0 1 0 -0.019448 -0.0023723 -0.0264518 -2.54606 -15.4578 6.74825 
3777 237 1 16 -0.4 9.30105 11.1913 6.62543 9.30105 60.3736 6.62543 0 1 0 0.00735667 -0.00609948 0.00266042 -1.42673 29.0214 -1.83003 
3784 237 3 1.008 0.03 10.5334 9.93796 5.6591 10.5334 59.1203 5.6591 0 1 0 -0.010829 0.00761291 1.63102e-06 12.1808 -10.8072 3.29891 
3779 237 2 12.01 0.14 9.83433 9.87577 6.48544 9.83433 59.0581 6.48544 0 1 0 -0.00360622 -0.00741976 -0.000786539 -38.1177 -36.5634 -40.591 
9819 616 6 16 -0.53 12.1885 16.1975 2.0994 61.3708 16.1975 2.0994 1 0 0 -0.00611404 0.00254211 0.00618395 11.5579 7.68902 1.17508 
3663 229 3 1.008 0.03 11.7487 12.6558 6.37962 11.7487 61.8382 6.37962 0 1 0 0.0097819 0.0260377 0.0272904 -14.7074 -4.34675 -19.0361 
9817 616 4 14.01 -0.66 14.1758 14.7294 1.51957 63.3581 14.7294 1.51957 1 0 0 -0.00220799 0.00147765 0.00222307 31.4513 -12.0847 2.96573 
9825 616 5 32.06 1.02 14.2324 13.7497 2.71751 63.4147 13.7497 2.71751 1 0 0 0.0049258 0.0029332 0.00297642 45.4423 -91.3134 -26.6616 
9827 616 6 16 -0.53 13.0128 13.2764 3.3086 62.1952 13.2764 3.3086 1 0 0 -0.00491336 0.00221427 -0.00250597 -12.6728 13.0065 2.6565 
9828 616 7 12.01 0.35 15.091 14.7016 3.95543 64.2733 14.7016 3.95543 1 0 0 0.00415049 0.00455926 0.00581904 4.33258 12.162 -16.6624 
9826 616 6 16 -0.53 15.2072 12.6301 2.41415 64.3895 12.6301 2.41415 1 0 0 -0.00459517 -0.00855255 0.000283909 -42.3747 63.7116 -0.280409 
9830 616 8 19 -0.16 15.1827 14.0142 5.06265 64.3651 14.0142 5.06265 1 0 0 0.0014148 -0.004278 -0.00527726 10.1042 -0.917635 16.4553 
9831 616 8 19 -0.16 16.303 15.0136 3.50552 65.4853 15.0136 3.50552 1 0 0 -0.00023094 -0.0033067 0.00558785 0.409866 -3.19483 13.2132 
9829 616 8 19 -0.16 14.487 15.8395 4.21388 63.6693 15.8395 4.21388 1 0 0 0.00285203 0.000143018 0.000985277 -4.63447 6.00211 6.69804 
10154 638 8 19 -0.16 16.0162 10.9355 6.13047 16.0162 10.9355 55.3128 0 0 1 0.000410985 0.00284988 0.00265554 -6.41083 15.1279 -15.4746 
10454 665 9 24.305 2 16.3259 11.1511 1.40227 65.5082 11.1511 1.40227 1 0 0 -0.00273053 -0.00214226 -0.0116255 -31.3237 20.4815 16.0556 
9818 616 5 32.06 1.02 13.3489 15.9906 1.25708 62.5312 15.9906 1.25708 1 0 0 -0.00153515 -0.00325044 -0.0017246 -42.5069 1.23375 -30.5704 
9858 618 7 12.01 0.35 8.81058 15.7021 6.23562 57.9929 64.8845 6.23562 1 1 0 0.00494296 0.00314566 -0.00293339 6.36989 -5.6243 31.3378 
9860 618 8 19 -0.16 10.0507 15.5848 5.7779 59.2331 64.7671 5.7779 1 1 0 -0.000185828 -0.00101314 -0.0032994 -9.63355 -16.8107 -11.9582 
2878 180 3 1.008 0.03 9.32065 11.1987 0.868858 9.32065 60.381 -48.3135 0 1 -1 -0.0435395 -0.0211995 0.00226447 5.44303 19.8765 -15.9084 
4947 310 2 12.01 0.14 13.5781 10.4495 0.541571 62.7604 10.4495 0.541571 1 0 0 -0.000183982 -0.00480213 -0.00853999 18.0229 55.555 -32.6623 
3654 229 2 12.01 0.11 12.0839 12.6969 7.38103 12.0839 61.8792 7.38103 0 1 0 0.00557304 0.000612283 -0.0045863 33.5549 -7.28413 7.55281 
4952 310 3 1.008 0.03 12.9548 11.3037 0.92836 62.1372 11.3037 0.92836 1 0 0 -0.001784 0.00873595 -0.0257273 11.7536 -20.2802 -3.73362 
4951 310 3 1.008 0.03 12.9307 9.60403 0.410573 62.113 9.60403 0.410573 1 0 0 -0.00777012 -0.00939781 0.0110141 -10.72 -6.94013 -20.6415 
3240 203 3 1.008 0.03 24.9077 11.2893 5.45227 74.0901 60.4717 103.817 1 1 2 0.0141921 0.0215761 -0.00584949 -43.3851 27.286 -28.18 
7794 488 1 16 -0.4 17.4157 9.85192 0.726789 66.5981 9.85192 0.726789 1 0 0 -0.00313032 0.000155178 -0.00285204 -34.2497 -47.6651 -11.9778 
7803 488 3 1.008 0.03 17.3142 14.1255 1.62004 66.4965 14.1255 1.62004 1 0 0 0.00147204 -0.00689072 0.0125559 -4.8807 1.41517 -0.779987 
7796 488 2 12.01 0.14 18.7911 10.0088 0.512795 67.9735 10.0088 0.512795 1 0 0 0.00478709 0.00136116 0.00776286 17.9857 -26.7479 -0.386795 
3234 203 1 16 -0.4 24.2259 9.30629 6.59963 73.4082 58.4886 104.964 1 1 2 -0.000819468 -0.00586718 0.00264061 8.23262 23.0207 -2.81112 
7804 488 3 1.008 0.03 18.9462 13.6312 1.95511 68.1285 13.6312 1.95511 1 0 0 -0.016212 0.00746135 -0.00082441 7.39279 5.71967 10.5796 
7797 488 2 12.01 0.11 18.1606 13.5814 1.22652 67.343 13.5814 1.22652 1 0 0 -0.00232992 -0.00322879 -0.00148172 -2.60283 -35.3389 23.0459 
7795 488 2 12.01 0.14 19.0464 11.5071 0.532829 68.2288 11.5071 0.532829 1 0 0 -0.00825106 0.00168345 -0.00116741 10.1346 -4.71138 7.20773 
78 5 3 1.008 0.03 22.2541 14.6718 5.26418 71.4364 -182.058 5.26418 1 -4 0 0.000436677 0.000946406 0.013348 17.3405 -0.182854 29.2546 
66 5 1 16 -0.4 24.0234 15.4085 6.43346 73.2058 -181.321 6.43346 1 -4 0 -0.000376871 -0.00681013 -0.00526044 -17.2631 12.5757 -11.2209 
70 5 2 12.01 0.11 23.2738 15.1135 5.26964 72.4561 -181.616 5.26964 1 -4 0 0.00132289 0.00115168 0.00397673 -42.1203 11.2269 -49.7342 
10150 638 6 16 -0.53 17.8274 8.99565 4.84433 17.8274 8.99565 54.0267 0 0 1 0.00183246 -0.000874345 -0.00693111 4.8486 12.4767 -9.81444 
10149 638 6 16 -0.53 16.9183 10.7064 3.35656 16.9183 10.7064 52.5389 0 0 1 -0.00720487 -0.00483116 -0.000879941 -0.795282 3.89088 -34.4161 
10153 638 8 19 -0.16 17.8875 11.0372 6.88786 17.8875 11.0372 56.0702 0 0 1 0.00516556 -0.00169367 0.00193042 20.9685 16.3074 7.83206 
79 5 3 1.008 0.03 22.9032 16.0575 4.7713 72.0855 -180.672 4.7713 1 -4 0 0.00716851 0.0116475 0.0145909 27.3411 -17.2961 8.40487 
2779 174 3 1.008 0.03 22.4858 15.5466 1.21015 120.851 -82.8181 1.21015 2 -2 0 -0.0104457 0.00112385 0.013178 11.0329 17.5438 1.92599 
2773 174 2 12.01 0.11 21.5545 15.0867 0.973602 119.919 -83.278 0.973602 2 -2 0 -0.00612165 0.00496788 0.00449467 -12.5597 -30.5921 -31.2165 
2769 174 1 16 -0.4 21.6934 13.6958 0.913408 120.058 -84.6689 0.913408 2 -2 0 0.000923203 0.000384166 0.00498207 -9.90431 -3.33606 15.4286 
10152 638 8 19 -0.16 17.2448 12.7108 5.55051 17.2448 12.7108 54.7329 0 0 1 0.00234476 0.000840359 -0.00302102 -1.36521 -66.8884 19.5207 
10151 638 7 12.01 0.35 17.2375 11.3289 5.78967 17.2375 11.3289 54.972 0 0 1 -0.00383617 -0.00972229 -0.000233118 -10.3584 37.2437 -2.75148 