ITEM: TIMESTEP
1950000
ITEM: NUMBER OF ATOMS
10479
ITEM: BOX BOUNDS pp pp pp
4.0882558190751794e-01 4.9591174418091420e+01
4.0882558190751794e-01 4.9591174418091420e+01
4.0882558190751794e-01 4.9591174418091420e+01
ITEM: ATOMS id mol type mass q x y z xu yu zu ix iy iz vx vy vz fx fy fz 
3335 209 3 1.008 0.03 3.65631 3.88047 3.67849 102.021 -45.3019 3.67849 2 -1 0 0.00518755 -0.0368236 -9.45534e-05 30.499 -12.3434 -12.1467 
3338 209 3 1.008 0.03 5.83195 2.24324 5.26744 104.197 -46.9391 5.26744 2 -1 0 0.0120501 -0.0134196 -0.00681931 42.0952 -5.83394 -8.22734 
3344 209 3 1.008 0.03 5.23017 4.94713 6.12159 103.595 -44.2352 6.12159 2 -1 0 -0.000618925 -0.00564657 -0.0158792 -10.1988 9.76636 -5.59954 
3331 209 2 12.01 0.14 4.71061 3.45988 3.62403 103.075 -45.7225 3.62403 2 -1 0 -0.00197779 0.000293705 0.00138818 -2.94677 -16.8421 26.1303 
3332 209 2 12.01 0.14 4.92103 2.57192 4.89269 103.286 -46.6104 4.89269 2 -1 0 -0.00384643 -0.00128443 0.00034981 -41.3655 42.0699 6.7068 
3330 209 1 16 -0.4 4.23481 3.11487 6.00264 102.6 -46.0675 6.00264 2 -1 0 -0.00215843 0.00212049 0.00137612 1.45033 3.69709 5.80273 
3334 209 2 12.01 0.11 4.96089 4.10265 6.73465 103.326 -45.0797 6.73465 2 -1 0 -0.00881371 0.00669416 -0.00410352 25.0272 -4.50255 -1.60124 
3336 209 3 1.008 0.03 4.87632 2.82015 2.7661 103.241 -46.3622 2.7661 2 -1 0 0.00689461 0.0185442 -0.00941539 -8.52886 0.781095 -9.1116 
3337 209 3 1.008 0.03 4.35641 1.72499 4.71437 102.721 -47.4574 4.71437 2 -1 0 0.00157273 -0.00230712 0.0100985 -15.1503 -35.3217 -7.74132 
7390 462 3 1.008 0.03 1.08643 1.73959 2.47917 50.2688 100.104 100.844 1 2 2 -0.025153 0.00487968 -0.00887359 -0.0770994 0.617622 -3.54449 
7382 462 2 12.01 0.11 1.07554 2.6844 1.9323 50.2579 101.049 100.297 1 2 2 -0.0029885 0.0113717 -0.00391535 -32.0928 -6.38816 26.729 
3329 209 1 16 -0.4 5.68616 4.45812 3.60622 104.051 -44.7242 3.60622 2 -1 0 0.000292202 -0.000913112 -0.000843013 11.4498 24.8108 9.04524 
4828 302 3 1.008 0.03 8.03396 8.01865 2.97066 155.581 -41.1637 -46.2117 3 -1 -1 0.0151601 -0.00192438 -0.0225619 17.0774 7.45434 -2.27134 
7378 462 1 16 -0.4 2.33551 2.91827 1.41581 51.5179 101.283 99.7805 1 2 2 -0.00813848 0.00747671 0.000356688 41.9975 -11.0515 -48.9093 
3341 209 3 1.008 0.03 7.08139 4.11254 2.19622 105.446 -45.0698 2.19622 2 -1 0 -0.00622671 0.0169593 0.000113075 3.87919 -3.36726 22.7969 
3333 209 2 12.01 0.11 7.04023 4.09949 3.3181 105.405 -45.0829 3.3181 2 -1 0 -0.0012357 0.00389697 0.00423781 -25.5331 -32.344 -39.4027 
3340 209 3 1.008 0.03 7.36086 3.07323 3.65316 105.726 -46.1091 3.65316 2 -1 0 -0.00432776 0.0145649 -0.0312806 -9.45193 28.6847 -2.51392 
3339 209 3 1.008 0.03 7.67658 4.88445 3.6387 106.041 -44.2979 3.6387 2 -1 0 -0.0112116 -0.0134762 0.00452484 16.5427 9.6504 10.4474 
3343 209 3 1.008 0.03 5.96156 3.83976 7.13112 104.326 -45.3426 7.13112 2 -1 0 0.0162539 -0.0178794 0.0313923 -17.151 -12.1974 -5.13988 
4411 276 3 1.008 0.03 7.10984 6.15115 7.24558 7.10984 55.3335 105.61 0 1 2 0.000537181 0.0136723 -0.0355644 4.78775 -12.0477 15.8376 
3838 240 3 1.008 0.03 2.63018 5.51112 4.66012 -46.5522 5.51112 152.207 -1 0 3 -0.003512 0.0228335 -0.0190024 -26.4439 3.19732 16.319 
7391 462 3 1.008 0.03 0.834937 3.46083 2.68181 50.0173 101.826 101.047 1 2 2 0.00584456 0.000328173 0.00673258 3.98745 -6.57619 -7.68638 
4412 276 3 1.008 0.03 7.46772 6.56238 5.67159 7.46772 55.7447 104.036 0 1 2 -0.0134393 -0.0211643 -0.0152219 -0.866199 3.88712 -18.669 
824 52 3 1.008 0.03 4.12441 6.40691 1.45207 4.12441 55.5893 -47.7303 0 1 -1 0.0187791 -0.00777421 0.0143269 22.2169 21.7983 -0.462112 
4405 276 2 12.01 0.11 7.59599 6.91098 6.67187 7.59599 56.0933 105.037 0 1 2 0.00287046 -0.00797915 0.00453724 9.01607 -21.7837 -6.15577 
3826 240 1 16 -0.4 2.21938 7.20862 5.75814 -46.963 7.20862 153.305 -1 0 3 -0.000709151 -4.71868e-05 0.000812546 -25.7527 -8.92325 -6.6245 
7386 462 3 1.008 0.03 3.05209 1.10083 0.657347 52.2344 99.4655 99.022 1 2 2 -0.0072234 0.0145939 -0.0120773 -16.5341 -10.3421 1.93259 
3839 240 3 1.008 0.03 2.05851 5.25505 6.32831 -47.1238 5.25505 153.875 -1 0 3 0.00406607 0.000697722 -0.000815401 4.42144 1.17568 -3.9192 
8572 536 3 1.008 0.03 1.83038 0.710931 5.02708 1.83038 49.8933 -44.1553 0 1 -1 -0.00975364 0.00940676 -0.0125728 -10.227 -0.914126 -11.1913 
1827 115 2 12.01 0.14 1.02008 6.80958 1.41131 1.02008 6.80958 -146.136 0 0 -3 -0.00866879 -0.00359776 -0.00206877 46.2644 23.6859 -29.8055 
3840 240 3 1.008 0.03 0.817499 5.51806 5.17342 -48.3649 5.51806 152.72 -1 0 3 -0.0260265 -0.00178828 -0.0159647 18.9769 20.4247 -3.13015 
3828 240 2 12.01 0.14 1.38768 7.88679 6.73054 -47.7947 7.88679 154.278 -1 0 3 -0.00276565 0.00088237 -0.00804236 67.9772 -2.30359 30.2805 
827 52 3 1.008 0.03 3.34264 8.06733 3.41964 3.34264 57.2497 -45.7627 0 1 -1 0.0048646 -0.0012096 0.00578285 -0.369345 -4.22142 -2.50189 
823 52 3 1.008 0.03 5.47249 7.17497 2.28736 5.47249 56.3573 -46.895 0 1 -1 -0.0132446 -0.0126674 0.0255262 10.4089 1.96378 17.7483 
819 52 2 12.01 0.14 4.82371 7.29949 1.45523 4.82371 56.4818 -47.7271 0 1 -1 0.00617315 0.000600149 0.00528921 -35.2851 -23.024 -6.92311 
4401 276 1 16 -0.4 6.99966 8.09267 6.95622 6.99966 57.275 105.321 0 1 2 0.0100059 -0.0027702 -0.00325522 -12.4414 35.8218 5.06098 
4407 276 3 1.008 0.03 5.23421 7.76332 5.78665 5.23421 56.9457 104.151 0 1 2 0.0347323 -0.0324555 0.00611269 16.8609 4.66357 1.50119 
817 52 1 16 -0.4 4.01385 8.4813 1.49943 4.01385 57.6637 -47.6829 0 1 -1 -0.0022141 -8.34659e-06 0.00520276 5.6312 -5.7679 -16.4082 
4403 276 2 12.01 0.14 5.59272 8.0761 6.78257 5.59272 57.2584 105.147 0 1 2 0.00212267 -0.00441578 -0.00237989 -27.3544 24.5358 -16.9753 
8565 536 2 12.01 0.11 0.753527 0.462504 4.98664 0.753527 49.6449 -44.1957 0 1 -1 -0.0101069 0.000143492 -0.00433111 13.6935 -39.1818 41.5967 
3830 240 2 12.01 0.11 1.86598 5.82864 5.43012 -47.3164 5.82864 152.977 -1 0 3 -0.0100728 -0.000300203 -0.00500639 17.7003 7.37388 1.56201 
1832 115 3 1.008 0.03 1.47432 7.81661 1.50063 1.47432 7.81661 -146.046 0 0 -3 -0.0091615 -0.0113236 -0.0252121 -15.8543 -7.62398 7.39522 
4408 276 3 1.008 0.03 5.03109 7.39692 7.38244 5.03109 56.5793 105.747 0 1 2 0.0154234 -0.00332151 0.0211216 8.8867 -13.501 16.3425 
1831 115 3 1.008 0.03 1.84163 6.18982 1.76207 1.84163 6.18982 -145.785 0 0 -3 0.0322998 -0.0133953 -0.0358267 -7.16099 -10.0323 6.159 
3930 246 3 1.008 0.03 6.36568 0.414439 1.49441 6.36568 -97.9503 50.6768 0 -2 1 -0.00858232 0.00902713 -0.0129933 -7.81057 29.0865 -15.4515 
2399 150 3 1.008 0.03 8.04024 3.12852 7.33598 -90.3245 3.12852 56.5183 -2 0 1 0.00555492 -0.0214911 -0.00520676 -6.01808 1.10045 -7.07369 
8231 515 3 1.008 0.03 5.33854 0.715243 7.0865 103.703 49.8976 -42.0959 2 1 -1 -0.00256027 0.00651857 -0.00331978 0.00788644 -11.9211 4.21038 
2140 134 3 1.008 0.03 8.05578 2.77891 0.534605 57.2381 2.77891 49.717 1 0 1 -0.0312931 -0.0495372 0.0208493 30.7045 8.80525 -30.1329 
818 52 1 16 -0.4 6.55206 8.44664 0.410485 6.55206 57.629 -48.7719 0 1 -1 0.00319711 0.00234161 0.00386755 -12.6764 -2.87811 -3.96762 
9584 600 8 19 -0.16 13.49 0.717232 5.92803 -35.6923 0.717232 5.92803 -1 0 0 -3.28311e-05 0.000984596 -0.00241471 -2.28431 -11.7847 -16.4982 
4413 276 3 1.008 0.03 8.65965 7.02268 6.86818 8.65965 56.205 105.233 0 1 2 0.0169689 0.00817833 0.00139178 -0.0784607 -6.30848 1.12584 
4818 302 1 16 -0.4 12.2734 6.97452 0.462017 159.82 -42.2078 -48.7203 3 -1 -1 -0.00146931 0.00345372 0.00380269 -22.4879 -14.3978 15.9965 
5067 317 3 1.008 0.03 13.4733 3.99564 2.04824 13.4733 102.36 2.04824 0 2 0 -0.00801215 -0.0130205 -0.00384498 11.6448 -0.358076 -19.9767 
9588 600 7 12.01 0.35 10.6736 3.35734 3.91784 -38.5088 3.35734 3.91784 -1 0 0 -0.000338034 -0.00354418 -0.00447258 44.4243 30.2628 -0.893863 
9577 600 4 14.01 -0.66 11.5417 1.03088 3.60595 -37.6406 1.03088 3.60595 -1 0 0 -0.004299 0.00500739 0.00829713 3.694 -1.22828 -16.5499 
9582 600 8 19 -0.16 14.456 1.30357 4.17246 -34.7264 1.30357 4.17246 -1 0 0 -0.00697899 0.00332601 0.00223617 13.5994 -0.000131486 -6.79171 
9585 600 5 32.06 1.02 10.5173 1.66107 4.57607 -38.665 1.66107 4.57607 -1 0 0 0.00178494 0.00216015 -0.00620341 -47.1447 -3.77698 -20.649 
7573 474 2 12.01 0.11 12.9413 7.07708 5.13637 12.9413 -42.1053 -44.046 0 -1 -1 0.00868844 0.00145376 0.00215596 -28.4222 29.3948 2.16579 
7581 474 3 1.008 0.03 12.091 7.36409 4.4426 12.091 -41.8183 -44.7397 0 -1 -1 -0.0194201 0.00095024 -0.011721 23.3106 -4.37761 17.7885 
7571 474 2 12.01 0.14 14.4957 7.26525 3.30848 14.4957 -41.9171 -45.8739 0 -1 -1 0.00317255 -0.00316283 -0.00302307 -54.1881 0.728917 -3.78869 
7575 474 3 1.008 0.03 14.1369 6.27195 3.07618 14.1369 -42.9104 -46.1062 0 -1 -1 0.012224 0.00145359 -0.00804143 12.1804 -11.2521 -2.43382 
7569 474 1 16 -0.4 14.1991 7.53167 4.66951 14.1991 -41.6507 -44.5128 0 -1 -1 -0.00671308 -0.00735919 -0.00377085 3.09051 7.54413 4.71337 
7580 474 3 1.008 0.03 12.7559 7.55792 6.15193 12.7559 -41.6244 -43.0304 0 -1 -1 -0.0107641 0.00545212 0.00150955 3.31067 -20.3989 -29.0499 
9586 600 6 16 -0.53 10.9164 1.68198 5.9406 -38.2659 1.68198 5.9406 -1 0 0 0.00109823 0.00514165 -0.000462842 11.5771 18.4909 21.325 
7579 474 3 1.008 0.03 12.9288 6.00191 5.21819 12.9288 -43.1804 -43.9642 0 -1 -1 -0.00622709 0.00397446 -0.00101378 0.584242 -7.97181 3.50122 
9590 600 8 19 -0.16 11.9292 3.84655 3.9497 -37.2532 3.84655 3.9497 -1 0 0 -0.00984134 0.001385 -0.00657822 -15.3319 -16.9598 7.51593 
9587 600 6 16 -0.53 9.09621 1.46284 4.2842 -40.0861 1.46284 4.2842 -1 0 0 0.00747055 0.00751102 -0.00392923 30.498 -16.4581 2.19246 
5061 317 2 12.01 0.11 13.6739 3.22594 1.26794 13.6739 101.591 1.26794 0 2 0 0.000889975 -0.0063261 -0.00611835 -14.4934 -54.417 18.8453 
5069 317 3 1.008 0.03 14.1238 2.31235 1.79378 14.1238 100.677 1.79378 0 2 0 0.0109437 -0.0149359 -0.00568168 -23.2523 28.3139 -11.9675 
4829 302 3 1.008 0.03 9.47247 7.81972 3.83957 157.02 -41.3626 -45.3428 3 -1 -1 -0.0182283 0.0225041 -0.00470719 15.3767 -0.0804802 11.348 
9589 600 8 19 -0.16 9.96042 4.27549 4.55113 -39.2219 4.27549 4.55113 -1 0 0 -0.00372333 -0.00324975 0.00241212 -10.9355 -6.03627 -3.05202 
9591 600 8 19 -0.16 10.369 3.40783 2.62569 -38.8133 3.40783 2.62569 -1 0 0 0.0035362 0.00135006 -0.00164371 -10.4635 1.93901 4.87437 
7572 474 2 12.01 0.14 15.9562 7.50894 3.10641 15.9562 -41.6734 -46.0759 0 -1 -1 -0.0033929 -0.0053762 -0.00369361 6.78291 -29.564 0.256873 
7576 474 3 1.008 0.03 13.8381 7.87645 2.62371 13.8381 -41.3059 -46.5586 0 -1 -1 0.00414786 -0.0124781 0.0246046 20.3227 -5.33224 18.948 
7578 474 3 1.008 0.03 16.1046 8.4974 3.50762 16.1046 -40.6849 -45.6747 0 -1 -1 0.00728074 0.0177317 -0.019775 16.4074 7.01931 2.80474 
4821 302 2 12.01 0.11 9.06452 8.44053 3.06953 156.612 -40.7418 -46.1128 3 -1 -1 0.00101323 0.00305963 -0.00334449 -27.728 -33.1146 -55.06 
4823 302 3 1.008 0.03 10.3242 6.26863 2.10871 157.871 -42.9137 -47.0736 3 -1 -1 0.00621499 0.0208049 -0.00135332 9.12959 -10.2657 25.7653 
4819 302 2 12.01 0.14 9.9324 6.91171 1.37657 157.479 -42.2706 -47.8058 3 -1 -1 0.000510566 -0.000259566 0.00877176 -14.9642 39.5504 -55.8497 
7570 474 1 16 -0.4 16.761 6.43196 3.70298 16.761 -42.7504 -45.4794 0 -1 -1 -0.00421975 -0.012402 -0.00223407 -32.4795 43.6474 -0.32232 
7737 484 3 1.008 0.03 15.6497 2.86111 7.17248 163.197 -46.3212 154.72 3 -1 3 0.00428309 -0.00458829 0.0173199 19.4792 -13.9806 11.4367 
7734 484 2 12.01 0.11 15.0557 5.08206 7.24949 162.603 -44.1003 154.797 3 -1 3 0.00557008 0.00604342 0.0078183 -19.1219 7.2125 51.5777 
7742 484 3 1.008 0.03 14.2637 4.46901 6.76069 161.811 -44.7133 154.308 3 -1 3 -0.00753142 0.0106263 0.015059 11.5921 19.3364 -5.64155 
1243 78 3 1.008 0.03 16.6435 8.33777 6.32099 -32.5388 8.33777 6.32099 -1 0 0 -0.00043062 -0.0315406 -0.00599186 -15.924 27.1602 12.5523 
7577 474 3 1.008 0.03 16.0686 7.53111 2.02743 16.0686 -41.6512 -47.1549 0 -1 -1 -0.0172062 -0.0104353 0.0073092 8.29117 1.68229 -3.74258 
2394 150 3 1.008 0.03 10.4892 4.46672 6.64369 -87.8755 4.46672 55.826 -2 0 1 -0.0134768 -0.0164839 0.00739378 2.80234 -10.061 -10.6421 
5064 317 3 1.008 0.03 16.2333 2.80201 0.955011 16.2333 101.167 0.955011 0 2 0 0.000964756 -0.0422799 0.00627259 23.8266 -41.1241 16.129 
5063 317 3 1.008 0.03 15.8881 4.37747 1.3848 15.8881 102.742 1.3848 0 2 0 0.0127129 0.0220638 -0.00144625 -0.0175961 17.7578 11.1423 
7744 484 3 1.008 0.03 15.8798 5.36002 6.61505 163.427 -43.8223 154.162 3 -1 3 -0.00217758 -0.0282993 -0.0267473 10.2107 -10.3778 -8.15129 
4817 302 1 16 -0.4 9.73066 8.32747 1.75703 157.278 -40.8549 -47.4253 3 -1 -1 -0.0047706 0.00331675 -0.00283926 0.639905 -34.8967 32.8168 
4824 302 3 1.008 0.03 8.9257 6.51562 1.10032 156.473 -42.6667 -48.082 3 -1 -1 5.58509e-06 0.00874741 -0.0123018 16.358 4.47533 5.33271 
5068 317 3 1.008 0.03 12.707 2.93486 0.798111 12.707 101.3 0.798111 0 2 0 0.0157263 -0.0166726 -0.0127124 10.1684 3.28464 15.1574 
5059 317 2 12.01 0.14 15.843 3.67011 0.593265 15.843 102.035 0.593265 0 2 0 0.00120156 0.0026077 0.000731934 -40.5117 20.4423 -45.3534 
2393 150 3 1.008 0.03 10.6613 6.00225 7.29301 -87.7034 6.00225 56.4754 -2 0 1 -0.0126955 0.017037 -0.00468615 -7.57423 -6.58413 13.7403 
7472 467 3 1.008 0.03 18.1846 1.40678 2.44916 116.549 99.7715 2.44916 2 2 0 -0.0286513 -0.0104965 0.0127048 -3.70938 -50.5921 3.29066 
7584 474 3 1.008 0.03 18.5829 7.52177 3.22931 18.5829 -41.6606 -45.953 0 -1 -1 0.0295757 -0.00174783 0.0147524 -10.2431 2.88568 -2.88116 
7574 474 2 12.01 0.11 18.0647 6.55833 3.25695 18.0647 -42.624 -45.9254 0 -1 -1 0.00314506 -0.00393254 -0.00212859 2.38198 -0.0181111 -1.00904 
7582 474 3 1.008 0.03 18.6859 5.89743 3.74537 18.6859 -43.2849 -45.437 0 -1 -1 -0.0025919 -0.0211891 -0.0281256 22.037 -20.0744 30.6694 
9770 612 8 19 -0.16 20.7155 1.04386 4.59421 -28.4668 50.2262 4.59421 -1 1 0 -0.00723239 -7.32422e-05 -0.00397665 -2.22036 11.8835 -39.7191 
9767 612 6 16 -0.53 23.5956 1.6998 4.35953 -25.5868 50.8821 4.35953 -1 1 0 0.00464941 0.00486866 0.00504516 27.0119 -7.9225 0.73594 
9758 612 5 32.06 1.02 23.0386 4.71665 1.97961 -26.1437 53.899 1.97961 -1 1 0 -0.0021595 0.0023044 0.00374516 -21.4842 -22.1545 -2.16487 
9763 612 8 19 -0.16 20.4093 4.76238 1.91013 -28.773 53.9447 1.91013 -1 1 0 -0.00393863 -0.00515895 -0.0035248 9.32872 -10.7761 -10.0309 
9757 612 4 14.01 -0.66 23.0768 3.30327 2.54178 -26.1056 52.4856 2.54178 -1 1 0 -0.00622298 0.00345304 5.65995e-05 -1.07139 -46.0618 25.4178 
9761 612 7 12.01 0.35 21.4532 4.63846 1.07764 -27.7292 53.8208 1.07764 -1 1 0 -0.00334614 0.000879039 0.000952034 -16.7199 27.7334 -10.4834 
9768 612 7 12.01 0.35 21.1648 1.63045 3.44419 -28.0175 50.8128 3.44419 -1 1 0 0.00321893 0.00374528 -0.0019086 -11.5923 24.0003 30.8924 
9765 612 5 32.06 1.02 22.6389 2.68827 3.93098 -26.5434 51.8706 3.93098 -1 1 0 -0.000803065 -0.00577254 -8.28849e-05 -14.9115 -7.90475 -39.6825 
9759 612 6 16 -0.53 22.9728 5.77538 2.88114 -26.2095 54.9577 2.88114 -1 1 0 0.00207238 -0.00145332 0.00415643 -22.3909 40.7299 40.461 
9766 612 6 16 -0.53 22.1115 3.55106 4.92896 -27.0708 52.7334 4.92896 -1 1 0 0.00289397 -0.00525372 0.000683155 -7.51711 17.2079 13.0128 
9771 612 8 19 -0.16 20.1749 2.386 2.88672 -29.0075 51.5684 2.88672 -1 1 0 -0.00899334 -0.00395347 0.00217753 22.2143 -23.6821 19.5609 
9769 612 8 19 -0.16 21.4469 0.655437 2.58843 -27.7355 49.8378 2.58843 -1 1 0 -0.00153502 0.000411405 0.00242593 0.522764 16.125 0.718378 
6312 395 3 1.008 0.03 23.4124 8.2337 6.69585 72.5948 57.416 -42.4865 1 1 -1 0.0176963 -0.0348942 0.00620751 -7.35501 15.2945 2.41 
6613 414 2 12.01 0.11 20.6842 6.77878 6.14201 20.6842 -42.4036 55.3244 0 -1 1 -0.00272829 0.00212537 -0.00477223 -19.3855 -7.86198 31.9816 
6619 414 3 1.008 0.03 20.2192 7.13783 5.23887 20.2192 -42.0445 54.4212 0 -1 1 0.00767775 0.0223757 0.0136331 -6.8458 -3.87401 -7.95671 
7583 474 3 1.008 0.03 18.0353 6.02634 2.36039 18.0353 -43.156 -46.822 0 -1 -1 0.0294886 0.000165026 -0.00234374 5.42685 1.62432 -39.2051 
6311 395 3 1.008 0.03 23.8601 6.70081 7.25063 73.0425 55.8832 -41.9317 1 1 -1 0.00474582 -0.0116694 0.00449936 7.39322 1.49146 -3.30525 
6621 414 3 1.008 0.03 19.9603 6.08336 6.7316 19.9603 -43.099 55.9139 0 -1 1 -0.00152984 -0.00872397 0.00701327 33.6429 24.5277 -32.6581 
6307 395 2 12.01 0.14 24.2771 7.61403 6.80327 73.4594 56.7964 -42.3791 1 1 -1 0.00570239 -0.00274795 0.00191788 1.26718 -26.6568 -2.36986 
7739 484 3 1.008 0.03 19.0061 2.59094 6.32621 166.553 -46.5914 153.873 3 -1 3 -0.0123176 -0.00805773 -0.029058 5.01749 -11.5074 -2.75949 
7740 484 3 1.008 0.03 17.4177 3.25241 5.78536 164.965 -45.9299 153.332 3 -1 3 0.0312165 0.017228 -0.00465557 20.941 5.9158 11.3807 
7733 484 2 12.01 0.11 18.3633 3.44843 6.36435 165.91 -45.7339 153.911 3 -1 3 -0.00393549 0.00489248 0.00617592 -17.4493 8.65311 -6.04131 
7741 484 3 1.008 0.03 18.9296 4.27146 5.92182 166.477 -44.9109 153.469 3 -1 3 0.00461891 -0.0170826 -0.0157133 -5.62063 -3.66771 -6.31716 
6314 395 3 1.008 0.03 24.9752 8.2742 4.852 74.1575 57.4566 -44.3304 1 1 -1 0.0322676 -0.00933836 -0.0047116 -1.55128 -9.49559 3.28445 
2380 149 3 1.008 0.03 23.4594 0.565796 6.57706 23.4594 49.7481 6.57706 0 1 0 0.00979257 0.00857278 0.00930852 -4.25336 1.64111 0.804531 
6620 414 3 1.008 0.03 21.6294 6.27055 5.79415 21.6294 -42.9118 54.9765 0 -1 1 -0.00365441 0.00701415 -0.000658633 -19.4424 9.7823 18.127 
6313 395 3 1.008 0.03 23.9342 6.77885 4.8957 73.1165 55.9612 -44.2867 1 1 -1 0.00939316 0.00477436 -0.00669569 30.4928 14.7887 8.18632 
6609 414 1 16 -0.4 20.8558 7.94426 6.98518 20.8558 -41.2381 56.1675 0 -1 1 -6.42943e-05 0.00146331 -0.00763822 -43.9072 26.6946 -18.1347 
9760 612 6 16 -0.53 24.0071 4.86383 0.9945 -25.1753 54.0462 0.9945 -1 1 0 -0.00317585 -0.00774828 0.00268798 41.6018 1.00858 -55.3996 
8282 518 3 1.008 0.03 24.3249 1.32065 0.824453 24.3249 50.503 0.824453 0 1 0 -0.0197085 -0.029205 0.00646363 7.82266 -2.7412 10.0088 
7465 467 3 1.008 0.03 19.6359 0.419313 0.533543 118.001 98.784 0.533543 2 2 0 0.0285521 -0.00394944 0.0120608 5.42981 -2.16816 -2.39058 
6308 395 2 12.01 0.14 24.8059 7.31782 5.38009 73.9883 56.5002 -43.8023 1 1 -1 0.00376998 -0.001827 0.00908383 -39.5364 13.9479 -5.29522 
1173 74 2 12.01 0.11 0.54453 11.5929 3.40455 0.54453 60.7752 52.5869 0 1 1 -0.00374028 0.000404091 0.00655053 32.9079 -13.0966 -11.26 
3834 240 3 1.008 0.03 1.68389 8.98563 6.77859 -47.4985 8.98563 154.326 -1 0 3 0.00709939 0.00627397 -0.0160685 -12.2368 -31.0032 -7.49245 
1179 74 3 1.008 0.03 1.28985 11.37 4.17419 1.28985 60.5523 53.3565 0 1 1 0.0228574 -0.0220171 0.0215675 -0.302612 11.5766 -0.414111 
4409 276 3 1.008 0.03 5.46963 10.2893 6.42131 5.46963 59.4716 104.786 0 1 2 -0.034893 0.0203195 -0.0213924 -1.0848 -10.7379 14.5343 
1181 74 3 1.008 0.03 0.550239 12.5861 3.01208 0.550239 61.7684 52.1944 0 1 1 0.033415 -0.00158708 0.00417535 11.5939 17.7564 1.56827 
3661 229 3 1.008 0.03 1.01728 13.7978 0.537846 1.01728 62.9802 0.537846 0 1 0 0.0188163 -0.00188141 -0.025888 1.64472 -5.38022 6.52416 
821 52 2 12.01 0.11 3.6598 8.89018 2.78158 3.6598 58.0725 -46.4008 0 1 -1 0.00556311 -0.0104667 -0.00326774 -1.95729 24.1565 43.197 
9858 618 7 12.01 0.35 7.20586 15.217 1.39468 56.3882 64.3993 1.39468 1 1 0 -0.00523959 -0.00116079 -0.000221851 0.911371 46.0305 -73.2983 
9852 618 8 19 -0.16 4.85153 12.7062 5.45391 54.0339 61.8885 5.45391 1 1 0 -0.007999 -0.000666915 0.000284286 -1.48337 -30.0218 8.01452 
9848 618 5 32.06 1.02 4.35134 14.5171 3.70838 53.5337 63.6994 3.70838 1 1 0 0.00269333 -0.00314735 -9.43155e-05 -4.01125 -8.59655 -50.2644 
9851 618 7 12.01 0.35 5.55627 13.475 4.67972 54.7386 62.6574 4.67972 1 1 0 -0.00553678 -0.0126774 -0.00707621 -21.3835 29.5212 9.05656 
9861 618 8 19 -0.16 8.07508 15.7277 2.22057 57.2574 64.9101 2.22057 1 1 0 -0.0056398 -0.00172382 0.00499834 22.473 -8.32852 9.45958 
9850 618 6 16 -0.53 3.76921 13.6965 2.68078 52.9516 62.8788 2.68078 1 1 0 -0.00402617 0.0124101 -0.00409205 6.23888 -21.3397 0.940629 
9854 618 8 19 -0.16 6.46081 12.7493 4.02177 55.6432 61.9317 4.02177 1 1 0 0.00168548 -0.00604059 -0.00946002 -11.8773 4.93462 -4.84579 
9847 618 4 14.01 -0.66 5.32216 15.5521 3.06367 54.5045 64.7344 3.06367 1 1 0 -0.00201201 0.00337846 -0.00280708 3.83566 18.4737 21.0264 
9855 618 5 32.06 1.02 5.61942 16.1088 1.63384 54.8018 65.2912 1.63384 1 1 0 -0.000510197 0.00530294 -0.000283367 42.8506 -5.28364 48.4427 
9857 618 6 16 -0.53 4.86785 15.6459 0.505723 54.0502 64.8282 0.505723 1 1 0 0.00814769 -0.00135263 -0.00271505 -21.7563 0.527383 -24.9798 
9849 618 6 16 -0.53 3.40458 15.0492 4.65147 52.5869 64.2316 4.65147 1 1 0 0.00139243 0.00253994 0.00172536 11.7499 9.71877 14.6174 
9859 618 8 19 -0.16 7.08411 13.9475 1.60164 56.2665 63.1298 1.60164 1 1 0 -0.000417672 -0.00391134 0.00150318 2.47762 -27.2981 9.49925 
9853 618 8 19 -0.16 6.20673 14.2422 5.53795 55.3891 63.4245 5.53795 1 1 0 -0.000779567 0.00320877 -0.00248089 10.4053 0.671086 -3.69383 
828 52 3 1.008 0.03 4.4892 9.40601 3.31743 4.4892 58.5884 -45.8649 0 1 -1 -0.0187108 -0.00211557 -0.00281909 -6.71624 -11.5604 -11.8326 
829 52 3 1.008 0.03 2.83566 9.631 2.82525 2.83566 58.8133 -46.3571 0 1 -1 0.0115156 -0.00490202 0.00290802 8.50527 -10.256 -10.3214 
4410 276 3 1.008 0.03 3.98905 9.41361 6.71737 3.98905 58.596 105.082 0 1 2 -0.00794494 -0.0112244 -0.00877276 -10.5518 4.43788 -5.72919 
1180 74 3 1.008 0.03 0.798235 10.9433 2.56971 0.798235 60.1257 51.7521 0 1 1 -0.0105881 -0.0242846 -0.00944232 -0.0446979 -3.42409 -0.614776 
4404 276 2 12.01 0.14 5.00631 9.49435 7.05133 5.00631 58.6767 105.416 0 1 2 0.00460489 -0.00244231 -0.00280268 9.07485 -11.5242 -2.83138 
7808 488 3 1.008 0.03 12.6232 9.4656 1.0725 61.8055 9.4656 1.0725 1 0 0 -0.0172198 0.0235938 0.0105382 3.56431 8.52898 -20.9842 
10156 638 6 16 -0.53 11.149 12.1221 7.085 11.149 12.1221 56.2673 0 0 1 -0.00690376 0.00808665 -0.006238 20.9172 5.28914 -24.9589 
4827 302 3 1.008 0.03 8.87747 9.43879 3.36802 156.425 -39.7436 -45.8143 3 -1 -1 -0.00510145 -0.010417 0.00486457 6.18951 21.3544 8.6523 
7801 488 3 1.008 0.03 14.721 11.3373 0.797484 63.9033 11.3373 0.797484 1 0 0 -0.00475878 0.0166763 0.0280633 -10.0388 15.3145 2.99563 
7805 488 3 1.008 0.03 13.7747 15.9896 2.37609 62.9571 15.9896 2.37609 1 0 0 -0.0285371 -0.0211802 -0.010132 -5.02978 0.533521 -10.5309 
7806 488 3 1.008 0.03 11.9438 10.0831 2.40796 61.1262 10.0831 2.40796 1 0 0 0.00252453 0.0168901 -0.0116405 -5.06974 16.0995 -16.8139 
7799 488 3 1.008 0.03 15.4992 12.8179 2.32055 64.6815 12.8179 2.32055 1 0 0 0.00435633 -0.015456 0.0212167 12.0757 3.24577 0.581612 
10153 638 8 19 -0.16 9.29597 15.4097 4.23799 9.29597 15.4097 53.4203 0 0 1 -0.00410494 -0.00249311 -0.00364632 -25.0043 3.91781 -16.4931 
10152 638 8 19 -0.16 10.0407 14.4978 6.01787 10.0407 14.4978 55.2002 0 0 1 -0.00247677 -0.000252843 -0.00238185 -13.2693 9.09551 -7.20855 
10161 638 8 19 -0.16 11.3435 9.8758 5.09795 11.3435 9.8758 54.2803 0 0 1 0.000325108 -0.00429856 -0.0014347 -26.1416 -1.77711 -5.16509 
10160 638 8 19 -0.16 12.6509 9.64773 6.78525 12.6509 9.64773 55.9676 0 0 1 0.00568109 -0.00551153 -0.00593873 -8.54683 4.63593 -19.9996 
10159 638 8 19 -0.16 13.3574 10.2321 4.87849 13.3574 10.2321 54.0608 0 0 1 0.00106299 0.000219523 -0.00615291 27.2478 -10.2835 -23.1533 
10149 638 6 16 -0.53 11.2966 13.6231 2.57398 11.2966 13.6231 51.7563 0 0 1 -0.00158139 -0.00318008 -0.000272512 -22.0186 0.385795 25.0629 
10150 638 6 16 -0.53 9.83035 12.3036 4.03254 9.83035 12.3036 53.2149 0 0 1 -0.00162327 -0.00196301 0.0018908 -17.6673 -9.2907 -1.49472 
10148 638 5 32.06 1.02 10.9047 13.231 3.92871 10.9047 13.231 53.1111 0 0 1 -0.00191366 -0.0010244 0.000639626 21.6523 3.02794 10.4187 
10147 638 4 14.01 -0.66 12.1758 12.8277 4.80994 12.1758 12.8277 53.9923 0 0 1 -0.00310112 0.00114495 -0.00310018 -26.9221 22.5202 -45.791 
10155 638 5 32.06 1.02 12.2896 12.1008 6.16009 12.2896 12.1008 55.3424 0 0 1 -0.0025418 0.00286907 0.00193568 -6.02254 22.4336 55.392 
10158 638 7 12.01 0.35 12.3767 10.3887 5.69204 12.3767 10.3887 54.8744 0 0 1 0.00136453 -0.00154675 0.00105976 23.5915 -15.458 39.5136 
7802 488 3 1.008 0.03 14.2282 10.6147 2.17892 63.4106 10.6147 2.17892 1 0 0 0.00969833 0.00256501 -0.00530142 -1.63442 6.90795 10.6986 
7796 488 2 12.01 0.14 14.0416 11.5527 1.64566 63.2239 11.5527 1.64566 1 0 0 -0.00575879 0.00155446 -0.00207959 11.2305 -47.026 -14.8293 
7800 488 3 1.008 0.03 14.3339 12.6372 3.53489 63.5163 12.6372 3.53489 1 0 0 0.00240359 -0.000586493 -0.0181186 -6.49904 -11.7576 11.5678 
7795 488 2 12.01 0.14 14.4416 12.7122 2.47171 63.624 12.7122 2.47171 1 0 0 -0.00129778 -3.61304e-05 -0.00855979 22.3972 31.2067 4.72859 
10151 638 7 12.01 0.35 10.3087 14.7914 4.7476 10.3087 14.7914 53.9299 0 0 1 0.000551345 -0.00208019 -0.00601489 69.4325 -14.6511 43.8784 
7793 488 1 16 -0.4 13.7785 13.8831 2.02738 62.9608 13.8831 2.02738 1 0 0 0.00299448 -0.00335343 -0.000233652 -13.094 1.20828 -34.2434 
10154 638 8 19 -0.16 11.3122 15.6845 4.84671 11.3122 15.6845 54.0291 0 0 1 -0.00929324 0.00376558 -0.000454923 -16.8662 -10.1539 -10.1764 
7797 488 2 12.01 0.11 14.3119 15.0719 2.57866 63.4942 15.0719 2.57866 1 0 0 0.00524705 -0.00120254 0.00807084 -7.02184 0.562799 -31.5784 
338 22 1 16 -0.4 15.5635 14.822 5.93862 64.7459 14.822 153.486 1 0 3 -0.00473019 0.00435218 -0.000667546 -10.2484 -11.5205 -12.6676 
340 22 2 12.01 0.14 16.6947 14.2506 6.52756 65.877 14.2506 154.075 1 0 3 -0.0016266 -0.000655753 -0.00875441 25.0063 32.5323 30.4666 
7804 488 3 1.008 0.03 15.3125 15.1736 2.26257 64.4949 15.1736 2.26257 1 0 0 -0.000302546 0.0138394 0.00255392 23.2278 7.36638 -7.37461 
7803 488 3 1.008 0.03 14.3186 15.0295 3.58301 63.5009 15.0295 3.58301 1 0 0 0.0104779 -0.00611581 0.0298557 1.84163 -5.88901 58.4309 
7794 488 1 16 -0.4 12.6958 11.6742 1.22888 61.8781 11.6742 1.22888 1 0 0 0.000968111 0.00127205 -0.000117258 -3.50581 -11.3784 -4.95494 
343 22 3 1.008 0.03 16.0964 12.3328 5.90803 65.2788 12.3328 153.455 1 0 3 0.00372684 -0.0109379 -0.00189878 42.8062 12.3013 7.63975 
350 22 3 1.008 0.03 14.0767 16.1569 6.13597 63.2591 16.1569 153.683 1 0 3 -0.00699616 0.0215291 0.00209044 3.50942 -3.92537 0.176317 
342 22 2 12.01 0.11 14.8805 15.7413 6.75394 64.0628 15.7413 154.301 1 0 3 -0.0016643 -0.00319549 -0.00456008 -24.1201 23.0177 -6.86492 
4955 310 3 1.008 0.03 9.17104 12.6229 1.36973 58.3534 12.6229 1.36973 1 0 0 0.0201242 -0.00146595 0.00576315 7.99025 -20.4369 -73.7788 
10454 665 9 24.305 2 12.2195 13.6009 0.822616 61.4018 13.6009 0.822616 1 0 0 -0.000317685 0.00831519 -0.000888213 3.28376 -14.9312 2.58109 
7807 488 3 1.008 0.03 11.0667 10.3978 0.889645 60.249 10.3978 0.889645 1 0 0 0.00666615 0.00201723 -0.0111119 5.53365 -6.24889 -0.843307 
7798 488 2 12.01 0.11 12.068 10.3684 1.33119 61.2504 10.3684 1.33119 1 0 0 -0.0047704 -2.92399e-05 0.00199399 -10.2514 -0.4807 36.7726 
1245 78 3 1.008 0.03 15.2243 9.46868 6.46674 -33.9581 9.46868 6.46674 -1 0 0 0.0160921 0.0090481 0.00299933 -5.11515 7.40112 -3.64155 
10157 638 6 16 -0.53 13.6154 12.3523 6.71709 13.6154 12.3523 55.8994 0 0 1 -0.0111134 -0.0021059 0.0018419 -26.8956 -9.76963 1.34907 
1237 78 2 12.01 0.11 15.9849 8.94388 7.0201 -33.1974 8.94388 7.0201 -1 0 0 -0.00603624 0.00531412 0.0031824 19.2739 -64.5201 11.1979 
352 22 3 1.008 0.03 15.4457 16.6179 7.02739 64.628 16.6179 154.574 1 0 3 -0.014229 -0.0149087 0.00912665 10.7593 0.630036 3.86902 
6611 414 2 12.01 0.14 19.8103 9.05365 6.80651 19.8103 -40.1287 55.9889 0 -1 1 0.00827627 0.00133322 -0.00413114 69.786 -50.4645 -15.1278 
2105 132 3 1.008 0.03 24.6189 10.1285 3.19773 -24.5634 -88.2362 52.3801 -1 -2 1 0.0104218 0.00288875 -0.0067988 -3.30441 11.2355 -10.8903 
2110 132 3 1.008 0.03 24.0225 12.2463 5.88253 -25.1598 -86.1184 55.0649 -1 -2 1 0.0143208 -0.00392521 0.00469415 -3.21666 11.8913 8.98626 
6616 414 3 1.008 0.03 18.7568 8.74852 6.89009 18.7568 -40.4338 56.0724 0 -1 1 -0.0421909 0.00425334 0.0236998 12.7033 -4.81588 2.07692 
339 22 2 12.01 0.14 17.0865 12.9214 5.95691 66.2688 12.9214 153.504 1 0 3 0.00107567 0.00274301 0.00274492 -81.2788 -22.0586 -15.1625 
348 22 3 1.008 0.03 16.8334 11.2341 3.83125 66.0157 11.2341 151.378 1 0 3 0.00429083 0.00969165 0.00409869 30.1348 2.0398 7.51465 
2100 132 2 12.01 0.14 24.0924 11.034 2.82455 -25.09 -87.3307 52.0069 -1 -2 1 -0.00904645 0.000657277 -0.00918203 -0.515767 -12.1168 32.653 
2102 132 2 12.01 0.11 23.655 11.5727 5.13564 -25.5274 -86.792 54.318 -1 -2 1 0.00483452 0.0011348 0.00267724 20.8937 -1.08405 -26.8117 
1722 108 3 1.008 0.03 24.9744 15.7214 1.65098 -24.208 64.9038 -47.5314 -1 1 -1 -0.0118786 -0.0049625 -0.00106733 -8.99565 -3.37129 -8.91009 
341 22 2 12.01 0.11 17.8463 11.6118 4.17452 67.0287 11.6118 151.722 1 0 3 0.0144791 -0.00705457 -0.000192666 -28.5321 -17.0447 6.95533 
349 22 3 1.008 0.03 18.5894 11.4947 3.39653 67.7717 11.4947 150.944 1 0 3 -0.00367659 -0.0164651 0.0251839 -2.67168 11.8662 -10.3152 
337 22 1 16 -0.4 17.624 12.9209 4.67475 66.8063 12.9209 152.222 1 0 3 0.00346598 -0.004341 0.000395101 20.6533 13.2615 -21.8732 
6615 414 3 1.008 0.03 19.9938 9.46983 5.78485 19.9938 -39.7125 54.9672 0 -1 1 0.0226079 -0.00286902 -0.00407853 -10.0124 -3.53068 17.5169 
3293 206 3 1.008 0.03 19.2516 14.4893 1.78589 -79.113 -34.693 50.9682 -2 -1 1 0.0194392 -0.0112782 0.00341574 3.22034 6.69658 -1.63506 
3285 206 2 12.01 0.11 18.2228 14.8489 1.79674 -80.1419 -34.3334 50.9791 -2 -1 1 0.00433445 0.00167658 0.000771803 17.136 -37.0245 -10.3185 
346 22 3 1.008 0.03 17.5335 14.9735 6.39758 66.7158 14.9735 153.945 1 0 3 0.011552 0.00165492 0.00597016 -11.346 -11.885 6.36443 
2107 132 3 1.008 0.03 20.8664 12.7399 0.586296 -28.316 -85.6248 49.7686 -1 -2 1 -0.0145281 -0.016907 -0.00829874 -1.01223 -21.1348 10.773 
2104 132 3 1.008 0.03 22.7295 9.88383 1.65515 -26.4529 -88.4809 50.8375 -1 -2 1 0.0323176 0.0277273 -0.0138095 -0.0246686 -0.187357 -0.44172 
2097 132 1 16 -0.4 22.3719 11.8732 1.70026 -26.8105 -86.4915 50.8826 -1 -2 1 0.00168837 0.00160265 -0.00427682 -51.9285 5.50094 -28.3559 
3292 206 3 1.008 0.03 17.9822 14.8644 2.83305 -80.3824 -34.318 52.0154 -2 -1 1 0.00568686 -0.0145837 -0.00711143 -12.7762 3.47067 14.9541 
7292 456 3 1.008 0.03 19.9297 14.1994 4.85293 -29.2527 14.1994 -44.3294 -1 0 -1 -0.0111158 -0.0268956 -0.00156942 -10.9178 -5.55862 -7.16348 