ITEM: TIMESTEP
1050000
ITEM: NUMBER OF ATOMS
10479
ITEM: BOX BOUNDS pp pp pp
4.0882558190751794e-01 4.9591174418091420e+01
4.0882558190751794e-01 4.9591174418091420e+01
4.0882558190751794e-01 4.9591174418091420e+01
ITEM: ATOMS id mol type mass q x y z xu yu zu ix iy iz vx vy vz fx fy fz 
2202 138 3 1.008 0.03 7.03019 3.52445 5.23333 56.2125 52.7068 -93.1314 1 1 -2 0.0204251 -0.0226098 -0.00148043 7.34905 -0.332411 21.4898 
2206 138 3 1.008 0.03 5.71094 1.82218 4.28188 54.8933 51.0045 -94.0828 1 1 -2 0.0135565 -0.00290973 0.0102539 -18.6893 20.8883 -9.14198 
2200 138 3 1.008 0.03 6.13974 6.10663 5.35254 55.3221 55.289 -93.0122 1 1 -2 -0.0135242 0.0240911 -0.0119115 -23.5223 16.785 14.9272 
2194 138 1 16 -0.4 5.31003 3.97064 4.36131 54.4924 53.153 -94.0034 1 1 -2 -0.00437047 0.000790619 0.00365484 -1.86175 -10.2398 0.621346 
2198 138 2 12.01 0.11 4.93867 2.60901 4.01925 54.121 51.7914 -94.3454 1 1 -2 -0.00513548 -0.00233734 0.00187367 8.32931 10.7723 -11.9321 
2196 138 2 12.01 0.14 6.70989 4.22583 4.49769 55.8922 53.4082 -93.867 1 1 -2 -0.00318882 0.00202255 -0.00419819 1.54847 -14.8694 -26.0207 
2195 138 2 12.01 0.14 6.98538 5.71897 4.87835 56.1677 54.9013 -93.4863 1 1 -2 0.00208576 0.0033283 -0.00111807 42.5272 -51.9709 -20.1322 
2207 138 3 1.008 0.03 4.00087 2.37183 4.55121 53.1832 51.5542 -93.8135 1 1 -2 0.00908904 -0.00116804 -0.0203105 7.86447 -0.254445 -5.45926 
2199 138 3 1.008 0.03 7.86742 5.7256 5.55989 57.0498 54.9079 -92.8048 1 1 -2 0.00512079 -0.0315678 0.000546532 -15.5607 4.59863 -10.0871 
2201 138 3 1.008 0.03 7.29081 3.84025 3.61107 56.4732 53.0226 -94.7536 1 1 -2 0.0132692 -0.00409075 0.0068309 -14.0822 18.5647 14.379 
2208 138 3 1.008 0.03 4.70504 2.63882 2.91372 53.8874 51.8212 -95.451 1 1 -2 0.00983965 -0.00038762 0.00369668 8.61316 -9.5785 25.7155 
2193 138 1 16 -0.4 7.33384 6.3119 3.63699 56.5162 55.4943 -94.7277 1 1 -2 -0.000726019 -0.00312179 0.00184485 -7.63309 16.4252 -1.38541 
675 43 2 12.01 0.14 2.83995 8.48638 5.63263 52.0223 106.851 -43.5497 1 2 -1 -0.00567833 -0.000568069 -0.00510319 68.6614 24.5025 28.6702 
680 43 3 1.008 0.03 3.87734 8.02868 5.4674 53.0597 106.393 -43.7149 1 2 -1 0.0213702 -0.0315632 0.0102516 -39.464 4.01012 3.84913 
674 43 1 16 -0.4 1.81502 6.59413 4.35732 50.9974 104.959 -44.825 1 2 -1 -0.00116942 -0.0036091 0.000157518 22.2075 -16.4185 -3.57486 
676 43 2 12.01 0.14 1.73725 7.95826 4.78358 50.9196 106.323 -44.3988 1 2 -1 -0.0106465 -0.00590759 0.0111592 -4.1226 3.28752 -17.9159 
682 43 3 1.008 0.03 1.83606 8.60168 3.92093 51.0184 106.966 -45.2614 1 2 -1 0.022905 0.00878234 0.0384691 -9.18908 -0.89281 -10.7092 
678 43 2 12.01 0.11 2.955 6.18121 3.52403 52.1373 104.546 -45.6583 1 2 -1 0.00225971 -0.00344946 -0.00385381 -24.9526 63.3866 -6.29473 
687 43 3 1.008 0.03 2.98709 6.91597 2.6409 52.1694 105.281 -46.5414 1 2 -1 0.016066 -0.0283142 -0.0131423 0.156972 -30.8875 27.5388 
688 43 3 1.008 0.03 3.91659 6.28908 4.0474 53.0989 104.654 -45.1349 1 2 -1 -0.00993797 -0.00387594 -0.0163779 -6.39634 -8.18941 -2.27522 
686 43 3 1.008 0.03 2.77112 5.17657 3.1642 51.9535 103.541 -46.0181 1 2 -1 0.0173169 -0.00563869 0.00174357 6.68903 -5.41168 -0.191503 
5757 360 3 1.008 0.03 6.689 5.72518 0.929841 -91.6757 -43.4572 -146.617 -2 -1 -3 0.00492142 -0.00326381 0.00224424 -31.9244 -14.4284 7.77766 
1949 122 3 1.008 0.03 0.557593 1.6119 6.94922 49.7399 -96.7528 56.1316 1 -2 1 -0.00473818 -0.0228538 -0.0271134 -4.10787 -0.689234 -10.455 
681 43 3 1.008 0.03 0.765578 8.16654 5.25394 49.9479 106.531 -43.9284 1 2 -1 0.0193955 0.00547981 0.0064814 4.24367 -1.5253 -4.49546 
5752 360 3 1.008 0.03 5.33243 7.58302 1.09731 -93.0323 -41.5993 -146.45 -2 -1 -3 -0.0147972 -0.0157457 -0.0128413 4.07564 -5.85677 17.9239 
1824 114 3 1.008 0.03 2.50595 4.46352 0.890271 100.871 53.6459 99.255 2 1 2 0.00918004 -0.0118486 -0.00576585 -22.9306 2.4291 -7.99945 
4785 300 1 16 -0.4 3.04438 0.996478 0.631854 52.2267 0.996478 0.631854 1 0 0 0.00211334 -0.00162484 -0.000744125 -20.9036 1.58171 -14.3189 
1823 114 3 1.008 0.03 0.944848 4.83103 1.58603 99.3095 54.0134 99.9507 2 1 2 0.0125571 -0.00437618 -0.00991729 -12.8945 -1.70853 -5.00023 
5756 360 3 1.008 0.03 5.93721 4.23035 0.420354 -92.4275 -44.952 -147.127 -2 -1 -3 0.0164738 0.0198608 -0.0297231 -4.98532 2.32055 4.85178 
673 43 1 16 -0.4 2.4415 8.48532 7.00928 51.6239 106.85 -42.1731 1 2 -1 0.00189336 0.00371878 0.00396384 -20.3918 -21.0282 -10.6156 
2204 138 3 1.008 0.03 6.18117 7.95037 3.97945 55.3635 57.1327 -94.3852 1 1 -2 -0.00396379 0.00206006 0.00219568 -0.0550116 9.11195 -6.47822 
2197 138 2 12.01 0.11 7.20779 7.73273 3.68087 56.3901 56.9151 -94.6838 1 1 -2 0.00198945 0.00868408 0.00437804 0.300021 -24.4022 -2.15476 
2205 138 3 1.008 0.03 7.86542 8.04995 4.47183 57.0478 57.2323 -93.8929 1 1 -2 -0.00305648 -0.0123276 -5.83643e-05 7.11956 12.691 2.6953 
5755 360 3 1.008 0.03 5.23688 4.96539 1.83592 -93.1278 -44.217 -145.711 -2 -1 -3 -0.0160001 0.0109267 0.00553474 -1.72911 4.52728 13.4219 
1948 122 3 1.008 0.03 2.29136 2.12094 7.09394 51.4737 -96.2438 56.2763 1 -2 1 0.00123793 -0.00590909 -0.0313993 -9.47584 -4.09836 -3.78306 
2203 138 3 1.008 0.03 7.48526 8.17609 2.70668 56.6676 57.3584 -95.658 1 1 -2 0.0164009 0.0131046 -0.00506847 -4.36694 -0.711399 10.489 
2752 172 3 1.008 0.03 5.2345 0.85512 6.86733 5.2345 0.85512 56.0497 0 0 1 0.00885719 0.0199436 0.00986335 -11.3657 4.44135 2.20519 
1814 114 2 12.01 0.11 1.49555 4.8955 0.651277 99.8602 54.0778 99.016 2 1 2 -0.00681762 -0.00219371 0.0018012 29.8145 -31.2553 -18.7624 
5749 360 2 12.01 0.11 5.67992 5.19057 0.885244 -92.6848 -43.9918 -146.662 -2 -1 -3 0.00110833 0.000769742 0.00585628 46.7333 -2.16807 -23.8736 
2742 172 2 12.01 0.11 6.25572 0.612753 7.08771 6.25572 0.612753 56.2701 0 0 1 0.00146798 0.00439671 -0.00138332 1.12001 46.7304 -14.5571 
2751 172 3 1.008 0.03 6.81339 0.878326 6.1894 6.81339 0.878326 55.3717 0 0 1 0.0347766 0.00191791 0.00235423 4.99684 2.2886 2.83505 
5408 338 3 1.008 0.03 1.77541 5.59469 6.8851 50.9578 103.959 6.8851 1 2 0 -0.0164901 -0.00351195 -0.00908293 -10.8099 -5.49923 20.4002 
5402 338 3 1.008 0.03 4.19374 5.24153 6.91633 53.3761 103.606 6.91633 1 2 0 -0.0121725 -0.01215 0.0118039 -13.6276 -4.31625 23.5884 
1835 115 3 1.008 0.03 7.44308 7.11284 7.33673 7.44308 7.11284 -140.21 0 0 -3 0.0117557 0.0222709 0.00658134 13.4618 -10.5734 -0.901012 
1822 114 3 1.008 0.03 1.74852 5.91402 0.45886 100.113 55.0964 98.8236 2 1 2 -0.00535483 0.0234978 0.0351499 -4.10591 16.5824 -3.05346 
5751 360 3 1.008 0.03 3.70192 7.35302 0.456261 -94.6628 -41.8293 -147.091 -2 -1 -3 -0.0172302 -0.0162457 0.0163364 5.60564 9.93108 2.8877 
6992 437 3 1.008 0.03 9.54587 0.521847 4.63257 107.911 49.7042 53.8149 2 1 1 0.0179771 -0.0338844 -0.00469349 1.66184 -25.3926 -11.6185 
3259 204 3 1.008 0.03 10.5544 5.47345 0.877197 108.919 54.6558 99.2419 2 1 2 -0.0255507 -0.000935107 -0.0194614 2.64351 -11.2762 4.16004 
2442 153 3 1.008 0.03 9.95004 6.39297 4.6723 108.315 55.5753 53.8546 2 1 1 -0.0361363 0.0178297 -0.0084529 3.42332 4.08109 2.79279 
2439 153 3 1.008 0.03 10.2181 4.25755 5.79032 108.583 53.4399 54.9727 2 1 1 -0.00792026 0.00603131 -0.00467418 -2.57925 3.39243 0.347278 
2529 159 1 16 -0.4 15.8839 1.81745 1.55981 15.8839 50.9998 50.7422 0 1 1 -0.00759262 -0.00303994 -0.00358945 9.9568 -9.03075 -23.5885 
2435 153 2 12.01 0.14 11.0551 4.60356 5.18484 109.42 53.7859 54.3672 2 1 1 -0.00275103 0.00207509 0.00427802 25.3805 -1.82954 1.86626 
2441 153 3 1.008 0.03 9.93256 5.21859 3.41488 108.297 54.4009 52.5972 2 1 1 -0.0195935 0.000540712 0.0111754 -0.0938528 -2.48038 -2.40381 
3860 242 2 12.01 0.14 15.8023 1.68342 7.14835 -33.3801 100.048 -42.034 -1 2 -1 -0.000297008 -0.00607998 -0.00880776 49.4852 -47.38 22.6315 
3858 242 1 16 -0.4 15.8762 2.73507 6.23524 -33.3062 101.1 -42.9471 -1 2 -1 0.00650947 0.0071254 0.00241842 0.812694 11.3539 -7.36949 
2537 159 3 1.008 0.03 13.6393 3.04137 2.52173 13.6393 52.2237 51.7041 0 1 1 -0.00966724 -0.000157963 0.00693933 5.29216 0.135714 5.19455 
2444 153 3 1.008 0.03 12.8213 2.65212 6.1272 111.186 51.8345 55.3095 2 1 1 0.00654426 0.0126703 0.0130416 -3.46702 4.87197 -8.67867 
2445 153 3 1.008 0.03 11.1517 2.1501 6.03352 109.516 51.3324 55.2159 2 1 1 -0.0220496 -0.0115981 -0.00600818 1.18501 -3.04049 -1.24248 
2437 153 2 12.01 0.11 12.015 2.40575 5.42049 110.38 51.5881 54.6028 2 1 1 -0.00193519 0.00521603 0.00108433 5.75352 -26.6568 10.8828 
2443 153 3 1.008 0.03 12.3155 1.47362 4.87353 110.68 50.656 54.0559 2 1 1 -0.00436028 0.0070937 -0.0170123 -2.88783 22.5267 8.94631 
2433 153 1 16 -0.4 11.6397 3.4313 4.54112 110.004 52.6136 53.7235 2 1 1 0.00637551 -0.00124216 8.44775e-05 -6.5474 29.5785 -6.33587 
2440 153 3 1.008 0.03 11.7841 5.10285 5.87561 110.149 54.2852 55.058 2 1 1 0.00125938 -0.00492651 -0.0109069 -11.7121 -13.9498 -11.431 
2532 159 2 12.01 0.14 14.6547 3.31864 2.84882 14.6547 52.501 52.0312 0 1 1 -0.00695752 0.0101769 0.000489882 5.17419 -29.6652 -3.84314 
4286 268 3 1.008 0.03 14.8108 7.30692 5.30068 162.358 -41.8754 -93.064 3 -1 -2 -0.0249424 -0.0187086 0.0138912 14.7745 -6.57162 -6.80955 
4278 268 2 12.01 0.11 14.1768 7.98593 5.82418 161.724 -41.1964 -92.5405 3 -1 -2 0.00349208 0.00178611 -0.00515307 -21.0717 28.1561 -27.213 
4287 268 3 1.008 0.03 13.3164 8.15059 5.1478 160.863 -41.0318 -93.2169 3 -1 -2 0.00641914 -0.00711158 0.000493996 3.55015 -8.94316 13.3389 
2530 159 1 16 -0.4 15.2213 4.24794 1.93543 15.2213 53.4303 51.1178 0 1 1 -0.00430872 -1.94742e-05 -0.00195795 -21.1694 9.78381 -8.92223 
2536 159 3 1.008 0.03 16.4881 2.30612 3.4615 16.4881 51.4885 52.6439 0 1 1 0.00938908 1.07366e-05 -0.00631126 6.90559 2.26809 3.34582 
2535 159 3 1.008 0.03 15.1107 1.2213 3.51727 15.1107 50.4037 52.6996 0 1 1 -0.0187831 0.00555624 -0.00525184 8.87194 30.5297 -28.1427 
2531 159 2 12.01 0.14 15.5766 2.0888 2.92951 15.5766 51.2712 52.1119 0 1 1 0.00049404 0.00331347 -0.00251969 -19.6691 -29.8867 5.69519 
2538 159 3 1.008 0.03 14.6519 3.63966 3.8626 14.6519 52.822 53.045 0 1 1 -0.0183977 -0.0195166 -0.02456 -9.90438 17.5255 15.0898 
2534 159 2 12.01 0.11 14.3708 5.42002 1.9606 14.3708 54.6024 51.143 0 1 1 -0.000288588 0.00393472 0.00139519 29.3494 25.6571 -44.1895 
2436 153 2 12.01 0.14 10.5821 5.6715 4.15933 108.947 54.8538 53.3417 2 1 1 0.000515314 0.00676579 0.00136562 -11.8759 -27.0978 12.8693 
2544 159 3 1.008 0.03 14.389 5.86685 2.92792 14.389 55.0492 52.1103 0 1 1 0.0200289 0.00947734 -0.00778648 -3.3512 7.44933 16.3628 
3862 242 2 12.01 0.11 15.5533 3.93796 6.8916 -33.629 102.303 -42.2908 -1 2 -1 -0.00541615 -0.00894865 0.00464253 42.9192 32.2246 -30.1674 
3870 242 3 1.008 0.03 15.5455 4.80006 6.17205 -33.6369 103.165 -43.0103 -1 2 -1 0.0192544 -0.00686944 0.00777068 -2.27536 -20.8298 10.4139 
2543 159 3 1.008 0.03 13.3381 5.29291 1.63017 13.3381 54.4753 50.8125 0 1 1 0.00630258 0.0172096 0.00149685 -0.198256 -8.95824 3.90337 
2434 153 1 16 -0.4 11.6786 6.26414 3.53463 110.043 55.4465 52.717 2 1 1 0.00049169 0.00158381 0.00472194 -0.852169 11.7374 -10.0525 
2438 153 2 12.01 0.11 11.2583 7.48181 2.92712 109.623 56.6642 52.1095 2 1 1 -0.000865263 -0.00132533 0.00411321 22.9615 -31.6178 -14.9749 
2446 153 3 1.008 0.03 10.4394 7.40025 2.23511 108.804 56.5826 51.4175 2 1 1 0.00589215 0.00689697 -0.0285323 -18.8692 -1.2245 6.2876 
2542 159 3 1.008 0.03 14.783 6.21057 1.23922 14.783 55.3929 50.4216 0 1 1 0.0085933 0.00810172 -0.00594676 -10.4815 -26.9401 26.3876 
2447 153 3 1.008 0.03 11.1643 8.20171 3.69087 109.529 57.3841 52.8732 2 1 1 0.00415927 -0.0205147 0.0052891 -9.04604 24.7542 10.7303 
2448 153 3 1.008 0.03 12.0195 7.75107 2.22858 110.384 56.9334 51.4109 2 1 1 0.00421404 0.0226478 -0.0072725 17.3182 11 -0.11882 
4274 268 1 16 -0.4 13.8363 7.47961 7.06694 161.383 -41.7027 -91.2978 3 -1 -2 -0.00818615 0.00597519 -0.00256069 -6.69109 -13.2153 14.8558 
10111 635 6 16 -0.53 16.5151 7.79217 3.14473 114.88 56.9745 3.14473 2 1 0 0.00041691 0.00377395 -0.00659434 5.03823 20.7581 -6.61884 
10478 689 9 24.305 2 16.3198 3.53083 0.509739 16.3198 52.7132 49.6921 0 1 1 -0.00153523 0.00128787 0.000514117 13.7217 -3.17508 18.3051 
1827 115 2 12.01 0.14 10.5804 7.86179 7.16526 10.5804 7.86179 -140.382 0 0 -3 0.00191689 -0.00649849 -0.00389136 39.5034 -13.4506 -27.5417 
1832 115 3 1.008 0.03 11.1378 8.19158 6.2776 11.1378 8.19158 -141.269 0 0 -3 -0.000400119 0.000306525 -0.0160567 -3.13772 3.78085 6.55632 
1831 115 3 1.008 0.03 10.9755 6.8404 7.30012 10.9755 6.8404 -140.247 0 0 -3 -0.000914504 -0.00833621 0.00423593 -12.7971 3.18819 -4.01223 
3261 204 3 1.008 0.03 10.2242 3.71248 0.553312 108.589 52.8948 98.918 2 1 2 -0.00823733 -0.00176772 0.00576954 -0.383624 -14.9795 16.2092 
2533 159 2 12.01 0.11 16.217 0.419616 1.26805 16.217 49.602 50.4504 0 1 1 0.0023341 0.00269403 -0.00143303 -44.9934 30.3619 -7.56591 
1825 115 1 16 -0.4 9.25284 7.95477 6.78262 9.25284 7.95477 -140.764 0 0 -3 -0.000985688 0.00372984 0.00572745 -16.21 -33.7292 16.1525 
8941 559 3 1.008 0.03 9.39457 1.75047 7.36739 -39.7878 1.75047 7.36739 -1 0 0 0.00723669 0.00520346 -0.00136461 7.67097 -6.63138 -13.9432 
3865 242 3 1.008 0.03 14.8051 1.43129 7.43136 -34.3773 99.796 -41.751 -1 2 -1 -0.00581252 -0.0342861 0.00916241 -16.3478 3.12999 9.74347 
3871 242 3 1.008 0.03 14.6215 3.87464 7.32358 -34.5609 102.239 -41.8588 -1 2 -1 -0.0281548 0.0106784 -0.0231932 -37.859 0.755842 19.9669 
1530 96 3 1.008 0.03 19.7915 4.19506 1.09322 19.7915 53.3774 50.2756 0 1 1 0.0475175 -0.00854847 -0.0184239 32.4963 27.8522 17.2608 
3864 242 3 1.008 0.03 17.4077 0.833827 5.98829 -31.7746 99.1985 -43.1941 -1 2 -1 0.0122275 0.0226204 0.00678583 -37.7025 -33.3388 25.3988 
8361 523 3 1.008 0.03 23.5013 5.71325 0.434246 121.866 5.71325 98.7989 2 0 2 -0.0108988 -0.0143884 0.0214976 -9.40317 -10.1325 18.7423 
1534 96 3 1.008 0.03 16.9872 4.85041 3.3356 16.9872 54.0328 52.5179 0 1 1 -0.00928228 0.0162122 0.0253409 -9.57367 0.505331 15.1289 
8357 523 2 12.01 0.11 21.6111 7.99164 0.817458 119.976 7.99164 99.1822 2 0 2 0.00364553 -0.00188943 0.00272565 -28.6358 -6.5234 -4.48887 
1529 96 3 1.008 0.03 19.4377 2.63977 1.72503 19.4377 51.8221 50.9074 0 1 1 -0.000113797 -0.00809266 -0.0228979 10.4227 -24.7816 21.2107 
7657 479 3 1.008 0.03 24.3491 4.65877 4.09666 -24.8332 53.8411 4.09666 -1 1 0 0.00385325 -0.00199355 0.0118207 -4.60134 4.13464 -4.9559 
1522 96 1 16 -0.4 17.8422 3.97295 1.63564 17.8422 53.1553 50.818 0 1 1 0.00425107 -0.0144777 -0.00255024 -6.55165 4.90904 27.1553 
7661 479 3 1.008 0.03 19.9471 4.79129 7.1967 -29.2352 53.9736 7.1967 -1 1 0 0.0114753 -0.00800633 -0.00339554 0.504526 -3.77691 -1.97705 
1535 96 3 1.008 0.03 18.4131 3.76078 3.66645 18.4131 52.9431 52.8488 0 1 1 0.0264114 0.00372271 -0.00232462 -10.0929 4.83692 2.78921 
7660 479 3 1.008 0.03 20.4419 6.07775 6.06418 -28.7405 55.2601 6.06418 -1 1 0 0.00768489 -0.017951 0.0239228 -4.77134 -12.7863 0.473558 
7653 479 2 12.01 0.11 20.7789 5.18082 6.6118 -28.4035 54.3632 6.6118 -1 1 0 0.00473369 0.00163236 0.00185908 7.93501 15.2991 3.08437 
7659 479 3 1.008 0.03 21.5204 5.60313 7.30319 -27.662 54.7855 7.30319 -1 1 0 -0.0548335 0.0176533 0.0212266 -6.56128 -5.35523 2.06485 
7649 479 1 16 -0.4 21.4411 4.22287 5.78504 -27.7413 53.4052 5.78504 -1 1 0 0.00710919 -0.00219196 0.0013695 7.56926 35.6039 -17.0795 
7651 479 2 12.01 0.14 22.326 5.00132 4.91029 -26.8563 54.1837 4.91029 -1 1 0 0.00310774 0.00177259 -0.00266931 -2.13914 -30.8234 -0.0218158 
7655 479 3 1.008 0.03 21.8125 5.4932 4.04907 -27.3699 54.6755 4.04907 -1 1 0 -0.0249982 0.0196813 -0.002767 5.85695 -6.90248 15.3786 
7652 479 2 12.01 0.14 23.4811 4.10134 4.45394 -25.7012 53.2837 4.45394 -1 1 0 0.00217771 -0.00385926 0.00472974 10.8536 -8.46685 21.3141 
7650 479 1 16 -0.4 22.8925 3.34551 3.45086 -26.2898 52.5279 3.45086 -1 1 0 0.000709499 -0.00370567 0.00112703 -13.6423 -27.3709 -17.6385 
1526 96 2 12.01 0.11 17.9471 4.51434 3.01394 17.9471 53.6967 52.1963 0 1 1 0.00072043 -0.00189691 0.00215852 44.047 7.88302 -42.9554 
1536 96 3 1.008 0.03 18.6097 5.43168 3.05977 18.6097 54.614 52.2421 0 1 1 -0.0130006 0.027954 0.00337865 -14.7577 -23.7099 -4.51635 
7656 479 3 1.008 0.03 22.8666 5.72671 5.46798 -26.3157 54.9091 5.46798 -1 1 0 0.0222342 0.026942 0.0260555 0.910819 20.5839 10.6369 
7658 479 3 1.008 0.03 23.8821 3.46755 5.28957 -25.3002 52.6499 5.28957 -1 1 0 0.0126675 -0.0086631 -0.0287893 -11.9888 10.032 -16.4543 
174 11 3 1.008 0.03 20.9246 7.78417 4.41626 119.289 56.9665 102.781 2 1 2 0.00982882 -0.00643031 -0.0151423 -16.4925 -9.40788 -13.5967 
162 11 1 16 -0.4 21.5548 8.41279 6.1851 119.92 57.5951 104.55 2 1 2 0.000540606 -0.000176119 0.00604878 -11.4539 -18.5056 -11.3931 
7654 479 2 12.01 0.11 23.7585 2.51641 2.68701 -25.4239 51.6988 2.68701 -1 1 0 0.0064603 0.00878623 -0.00184395 0.300913 -1.87588 19.2374 
6883 431 2 12.01 0.14 21.4115 1.21544 7.09615 21.4115 50.3978 105.461 0 1 2 -0.000126356 0.00429986 -0.00226272 2.46598 7.7046 -31.7496 
8365 523 3 1.008 0.03 20.9969 8.22188 1.74258 119.362 8.22188 100.107 2 0 2 0.00822174 -0.00886536 -0.0229743 12.6007 -6.17587 -26.8349 
6887 431 3 1.008 0.03 22.0844 2.07272 6.89614 22.0844 51.2551 105.261 0 1 2 0.0029892 0.00063707 -0.0189923 -7.18995 -9.5666 1.71952 
6888 431 3 1.008 0.03 20.9136 0.931349 6.15134 20.9136 50.1137 104.516 0 1 2 -0.0202144 -0.0107403 0.0221861 7.42102 4.03563 6.87066 
7662 479 3 1.008 0.03 24.0208 3.07088 1.83443 -25.1616 52.2532 1.83443 -1 1 0 -0.00681778 0.00594979 0.0083751 17.6444 14.7015 -18.3852 
1524 96 2 12.01 0.14 19.0828 3.44814 1.17245 19.0828 52.6305 50.3548 0 1 1 0.000497846 -0.00279875 0.00939092 -38.6869 -16.9382 -78.3987 
7664 479 3 1.008 0.03 23.3307 1.62479 2.2787 -25.8516 50.8071 2.2787 -1 1 0 0.0184372 -0.00699329 -0.00187133 -18.0746 -7.30338 -0.586036 
7663 479 3 1.008 0.03 24.6128 2.13284 3.23117 -24.5696 51.3152 3.23117 -1 1 0 -0.00228429 0.00115419 0.00102136 7.48574 6.8037 4.17132 
5128 321 3 1.008 0.03 24.814 6.92162 1.95071 24.814 56.104 1.95071 0 1 0 0.0206148 0.00308232 -0.00357028 -3.58472 -14.2821 5.59577 
8363 523 3 1.008 0.03 22.6244 7.95889 1.13367 120.989 7.95889 99.4984 2 0 2 -0.00255402 0.0135342 0.00123793 17.6923 -11.3413 6.96271 
6891 431 3 1.008 0.03 24.0765 0.612287 6.68341 24.0765 49.7946 105.048 0 1 2 0.00438205 0.00695784 -0.00169005 -10.7578 -6.97647 14.2668 
2587 162 3 1.008 0.03 19.4226 1.0764 3.78331 19.4226 1.0764 52.9657 0 0 1 0.00131077 -0.00580325 0.00416019 15.3028 -2.59471 1.7841 
3051 191 3 1.008 0.03 1.72151 16.4127 6.43847 50.9039 65.5951 55.6208 1 1 1 -0.000582265 0.0301745 -0.0177515 14.9457 -15.5466 5.28057 
8254 516 3 1.008 0.03 2.68938 10.4464 1.01128 101.054 59.6288 -48.1711 2 1 -1 -0.00287656 -0.00724159 -0.0624516 19.8751 -13.8257 3.42979 
9777 613 8 19 -0.16 0.949903 13.2173 7.41653 0.949903 13.2173 7.41653 0 0 0 0.00410365 -0.000771323 0.00081339 28.0054 -29.8426 11.241 
8255 516 3 1.008 0.03 0.955054 10.6551 0.911639 99.3198 59.8374 -48.2707 2 1 -1 0.00719186 -0.0244882 -0.00306838 34.2977 11.6421 -13.283 
5599 350 3 1.008 0.03 4.94985 12.3772 5.60491 4.94985 12.3772 54.7873 0 0 1 0.0183978 -0.0146138 -0.0103449 12.3036 -11.5602 -23.1248 
5590 350 2 12.01 0.11 5.00279 12.0797 4.52148 5.00279 12.0797 53.7038 0 0 1 -0.0007686 -0.00804682 -0.00294893 -44.0973 16.8418 9.76084 
679 43 3 1.008 0.03 3.08933 9.56548 5.41849 52.2717 107.93 -43.7639 1 2 -1 -0.0179258 0.0144478 0.0176696 -15.9362 -22.0899 -2.54525 
5591 350 3 1.008 0.03 1.61641 12.7807 2.67879 1.61641 12.7807 51.8611 0 0 1 0.0274683 -0.0200442 -0.0035572 8.54336 1.17134 10.5405 
5596 350 3 1.008 0.03 0.835797 11.0345 5.10216 0.835797 11.0345 54.2845 0 0 1 0.00357565 -0.00834341 9.06213e-05 8.49662 -3.04151 11.6565 
8019 502 2 12.01 0.14 8.12901 10.9244 7.08503 106.494 109.289 105.45 2 2 2 0.00330868 0.00121252 0.00228547 -17.0402 -15.9766 3.58804 
6661 417 2 12.01 0.11 7.68627 15.4146 6.13152 155.233 64.597 153.679 3 1 3 -0.00139853 -0.00699367 0.00156003 35.5822 14.1865 -15.3518 
5587 350 2 12.01 0.14 1.62372 13.354 3.62387 1.62372 13.354 52.8062 0 0 1 -0.00492683 -0.00432445 -0.0023431 -23.0098 5.11957 2.22116 
5588 350 2 12.01 0.14 2.90399 13.2419 4.49922 2.90399 13.2419 53.6816 0 0 1 -0.00322488 -0.00112381 0.00618282 -8.37644 11.0482 -9.51206 
5594 350 3 1.008 0.03 2.6403 13.1169 5.57519 2.6403 13.1169 54.7575 0 0 1 -0.0230874 -0.0329706 0.00673277 6.17893 8.92803 -20.6324 
5593 350 3 1.008 0.03 3.49337 14.1629 4.33287 3.49337 14.1629 53.5152 0 0 1 -0.0277339 0.00604866 0.0021456 -2.2567 -9.68586 5.67744 
5586 350 1 16 -0.4 3.60703 12.0959 4.0689 3.60703 12.0959 53.2513 0 0 1 0.00277377 0.00593768 0.00387701 36.1957 -5.45159 2.33754 
5585 350 1 16 -0.4 0.532034 12.9915 4.48131 0.532034 12.9915 53.6637 0 0 1 0.0047916 0.000307176 0.0065665 -9.81818 7.85345 -6.78155 
8026 502 3 1.008 0.03 6.10929 11.7354 7.21536 104.474 110.1 105.58 2 2 2 -0.013241 0.0358349 -0.0170602 12.9834 -5.4546 3.82063 
5600 350 3 1.008 0.03 5.44154 11.12 4.32712 5.44154 11.12 53.5095 0 0 1 -0.028907 -0.00105194 -0.0222087 1.42345 -14.2075 8.97232 
8023 502 3 1.008 0.03 7.91946 9.8199 7.03537 106.284 108.185 105.4 2 2 2 -0.00878134 -0.00770897 0.0045693 5.9129 28.9992 -10.2136 
6669 417 3 1.008 0.03 8.50527 14.7718 5.76156 156.052 63.9542 153.309 3 1 3 -0.0136718 -0.00145789 -0.0208645 -0.236306 13.1696 5.0088 
6668 417 3 1.008 0.03 7.50039 16.2334 5.39895 155.047 65.4157 152.946 3 1 3 -0.0236919 -0.00738146 -0.00891487 -3.50292 -15.2842 7.55551 
5598 350 3 1.008 0.03 5.66003 12.744 3.96865 5.66003 12.744 53.151 0 0 1 -0.0245431 0.00463806 -0.00038926 -4.62436 10.3325 0.680149 
6667 417 3 1.008 0.03 6.91306 14.7144 6.20545 154.46 63.8968 153.753 3 1 3 0.00803283 -0.0457285 -0.00704279 -30.8276 -11.0952 -1.67729 
8017 502 1 16 -0.4 8.19763 11.5978 5.81593 106.562 109.963 104.181 2 2 2 -0.00532157 -0.00551918 5.25799e-05 6.82044 -19.317 11.4262 
5592 350 3 1.008 0.03 1.35249 14.375 3.25735 1.35249 14.375 52.4397 0 0 1 0.0121021 -0.00946632 -0.00306903 15.4485 -11.5154 14.2714 
6657 417 1 16 -0.4 7.931 15.9495 7.41332 155.478 65.1319 154.96 3 1 3 0.0060154 0.0016478 0.00308772 0.0147029 5.67655 6.29183 
349 22 3 1.008 0.03 3.74234 16.6927 1.02298 52.9247 16.6927 148.57 1 0 3 -0.00269756 -0.00495796 0.00519653 -10.1057 -3.55853 -13.2279 
9651 604 8 19 -0.16 13.1324 13.5537 6.90113 13.1324 62.736 6.90113 0 1 0 -0.000181038 0.000174568 -0.00226433 17.0915 5.18353 8.04664 
4288 268 3 1.008 0.03 14.5948 8.99909 5.90485 162.142 -40.1833 -92.4598 3 -1 -2 0.00548175 -0.00126402 0.00199495 6.0891 -8.46298 0.860093 
8027 502 3 1.008 0.03 10.0099 10.482 5.53826 108.375 108.847 103.903 2 2 2 0.0150109 -0.0242078 0.0189762 -3.40143 1.80027 -4.72552 
8029 502 3 1.008 0.03 9.68974 11.9917 4.57759 108.054 110.356 102.942 2 2 2 0.00963679 -0.0225226 0.00726125 3.79054 -15.7395 2.76052 
8021 502 2 12.01 0.11 9.24762 11.0692 5.00513 107.612 109.434 103.37 2 2 2 -0.000995572 -0.00452463 0.0054325 -12.876 27.8863 -5.95775 
6663 417 3 1.008 0.03 9.93041 16.5624 7.21336 157.477 65.7447 154.76 3 1 3 0.0132955 0.0115606 0.0323847 24.1389 -19.411 -7.01203 
8028 502 3 1.008 0.03 8.78016 10.5383 4.167 107.145 108.903 102.532 2 2 2 0.0327725 -0.00974921 -0.00724074 7.57334 -5.35259 5.23995 
9648 604 7 12.01 0.35 14.0769 14.4922 6.74264 14.0769 63.6746 6.74264 0 1 0 0.00490334 -0.00238498 -0.00639369 -26.2234 -27.5716 -18.1795 
9645 604 5 32.06 1.02 13.4371 16.1075 7.26479 13.4371 65.2899 7.26479 0 1 0 0.00188635 0.00261038 -0.000314129 -7.78689 17.3014 1.09549 
4954 310 3 1.008 0.03 14.2487 14.4895 2.30956 63.431 14.4895 2.30956 1 0 0 -0.00246475 -0.029689 0.0103955 11.3446 1.61868 6.84541 
4951 310 3 1.008 0.03 13.7336 16.3768 3.87204 62.916 16.3768 3.87204 1 0 0 -0.0110445 -0.0018974 0.021524 -7.56607 5.3565 14.3188 
10108 635 8 19 -0.16 12.1904 10.538 1.70119 110.555 59.7203 1.70119 2 1 0 0.00350468 0.00778887 -0.00164207 -6.52464 -5.32179 -37.5354 
10106 635 7 12.01 0.35 13.3217 11.2078 1.5981 111.686 60.3902 1.5981 2 1 0 0.00518562 -0.00214829 -0.00726995 -0.49731 66.5127 48.6523 
10107 635 8 19 -0.16 13.0052 12.5204 1.35889 111.37 61.7028 1.35889 2 1 0 0.0013413 -0.00693064 0.00129976 4.74614 -38.5959 13.4778 
10104 635 6 16 -0.53 12.9582 10.6176 4.09844 111.323 59.7999 4.09844 2 1 0 -0.0024481 -0.000760341 0.00149863 -6.0757 13.3891 6.18661 
10103 635 5 32.06 1.02 14.1004 10.9242 3.27718 112.465 60.1066 3.27718 2 1 0 -0.00332613 0.00283342 -0.00516191 -7.05365 4.64372 -8.83873 
4948 310 2 12.01 0.14 15.0432 15.084 2.80543 64.2255 15.084 2.80543 1 0 0 -0.010727 0.00325453 -0.00562106 2.26138 18.7201 4.42964 
4953 310 3 1.008 0.03 15.4777 14.6172 3.70235 64.66 14.6172 3.70235 1 0 0 0.0216264 -0.0144151 0.0204769 -17.8777 -4.03509 -7.32314 
9646 604 6 16 -0.53 12.3561 16.366 6.32632 12.3561 65.5484 6.32632 0 1 0 -5.35672e-05 -0.00510796 -0.00245143 17.7938 -3.64202 8.73881 
10109 635 8 19 -0.16 14.0632 10.8499 0.567704 112.428 60.0323 0.567704 2 1 0 0.000516662 -0.00420152 -0.00171281 -2.3612 -16.6035 -1.46663 
4947 310 2 12.01 0.14 14.5066 16.5064 3.14434 63.689 16.5064 3.14434 1 0 0 8.66311e-05 -0.00932912 0.00299432 6.67109 14.8284 -28.9691 
3280 205 3 1.008 0.03 11.0526 14.4588 3.8671 -38.1297 14.4588 53.0494 -1 0 1 0.0293436 0.000919606 -0.00961026 -3.93887 1.56603 -24.9787 
4946 310 1 16 -0.4 16.2185 15.2828 2.04855 65.4008 15.2828 2.04855 1 0 0 0.0022847 -0.00290181 -0.00685762 15.2155 25.9829 -1.31271 
10102 635 4 14.01 -0.66 14.8147 9.6065 2.91732 113.179 58.7888 2.91732 2 1 0 -0.00432899 -0.00157809 -0.00784508 37.2837 -5.921 -5.93488 
3279 205 3 1.008 0.03 11.6962 14.6114 2.15534 -37.4862 14.6114 51.3377 -1 0 1 -0.0130901 0.00965292 -0.00751266 -8.24255 -19.093 1.81325 
9649 604 8 19 -0.16 14.3471 14.4362 5.44656 14.3471 63.6186 5.44656 0 1 0 0.00567174 0.000344673 -0.00087075 -1.61599 10.9636 4.05168 
3270 205 2 12.01 0.11 10.8707 14.859 2.82952 -38.3116 14.859 52.0119 -1 0 1 -0.00594325 0.00802783 0.00822128 9.37971 6.75167 23.7568 
7806 488 3 1.008 0.03 16.5852 16.1776 5.78753 65.7675 16.1776 5.78753 1 0 0 -0.0127585 -0.027104 0.00527628 5.91721 5.41492 0.190087 
10105 635 6 16 -0.53 14.9049 12.0937 3.60385 113.27 61.276 3.60385 2 1 0 -0.00324662 -0.0015406 -0.00210657 -9.32739 -12.4551 -18.0336 
4950 310 2 12.01 0.11 16.5196 14.1948 1.19941 65.702 14.1948 1.19941 1 0 0 0.000863725 0.00276104 0.000797624 32.3783 -16.1129 31.5208 
3278 205 3 1.008 0.03 9.88292 14.5172 2.43536 -39.2994 14.5172 51.6177 -1 0 1 0.0230562 -0.00518919 0.000271891 14.8125 12.1697 4.15802 
10110 635 5 32.06 1.02 16.3365 9.24478 3.13518 114.701 58.4271 3.13518 2 1 0 0.00205782 0.0046717 -0.00231622 -8.07061 -21.3768 13.4973 
4958 310 3 1.008 0.03 16.5534 13.2254 1.74264 65.7358 13.2254 1.74264 1 0 0 0.011082 0.0173709 -0.0142897 -9.45821 14.42 -7.10991 
5069 317 3 1.008 0.03 16.166 10.3491 7.3988 16.166 108.714 7.3988 0 2 0 -0.0150461 -0.0262405 -0.00150614 -15.7904 -17.3173 -12.6152 
10115 635 8 19 -0.16 16.6209 9.03269 0.549281 114.986 58.215 0.549281 2 1 0 -0.00603521 0.00577982 0.00274308 -0.0134836 34.1401 13.1657 
3273 205 3 1.008 0.03 10.3768 16.5943 4.76679 -38.8055 16.5943 53.9491 -1 0 1 0.0259431 -0.000172226 0.00883311 -0.0796183 -1.66162 4.33084 
3266 205 1 16 -0.4 11.1627 16.2498 2.86965 -38.0196 16.2498 52.052 -1 0 1 0.000371172 0.00509255 -0.0124649 -8.67941 8.00538 -2.39754 
9650 604 8 19 -0.16 15.196 14.1137 7.33008 15.196 63.2961 7.33008 0 1 0 -0.000546248 -0.000111826 0.00177273 -3.28093 -1.37051 13.5354 
4959 310 3 1.008 0.03 15.7845 14.1932 0.45261 64.9669 14.1932 0.45261 1 0 0 -0.0188459 -0.0129419 -0.00700067 -14.235 -7.77546 -27.7822 
5048 316 3 1.008 0.03 24.8864 13.1009 4.45455 123.251 -36.0814 -93.9101 2 -1 -2 -0.0265906 -0.00887588 -0.0402952 17.3689 -12.3428 13.6651 
5129 321 3 1.008 0.03 24.8967 9.04802 2.64692 24.8967 58.2304 2.64692 0 1 0 -0.00175246 0.0134351 0.0217385 -9.59172 5.26598 -3.1935 
176 11 3 1.008 0.03 21.807 9.21964 4.37487 120.172 58.402 102.74 2 1 2 -0.00381539 0.0129879 0.0171335 27.3451 23.448 -26.4282 
4960 310 3 1.008 0.03 17.556 14.2774 0.816408 66.7384 14.2774 0.816408 1 0 0 -0.0313842 0.00401992 -0.00992141 -16.417 5.62104 -2.70158 
7155 448 2 12.01 0.14 21.2864 13.2722 7.1319 21.2864 -35.9101 56.3142 0 -1 1 0.00466192 -0.0077395 0.0023995 27.0934 -57.2453 -6.27927 
166 11 2 12.01 0.11 21.06 8.73226 4.8822 119.425 57.9146 103.247 2 1 2 -0.000132901 -0.00391844 -0.00813657 -4.01589 -8.9199 55.9143 
5050 316 3 1.008 0.03 24.3952 14.415 6.52646 122.76 -34.7673 -91.8382 2 -1 -2 0.00598831 0.0229268 0.00294794 -6.3773 -5.65816 6.95091 
5042 316 1 16 -0.4 24.8078 12.5235 7.30245 123.173 -36.6588 -91.0622 2 -1 -2 0.000176859 0.00301391 0.00710854 -16.1463 13.4827 -23.5992 
170 11 3 1.008 0.03 22.7128 9.97393 6.29101 121.077 59.1563 104.656 2 1 2 -0.0141896 -0.00353139 0.00552213 10.9231 17.1261 2.4421 
169 11 3 1.008 0.03 21.1659 10.1788 7.15502 119.531 59.3611 105.52 2 1 2 0.00698392 0.022019 0.00526086 -14.6825 12.0965 -10.4488 
10116 635 8 19 -0.16 16.9466 11.0794 1.32701 115.311 60.2617 1.32701 2 1 0 0.00674036 -0.000805512 0.000868655 -4.33414 -1.49203 -10.1436 
9163 573 3 1.008 0.03 23.908 12.6408 1.07214 23.908 12.6408 1.07214 0 0 0 -0.00495605 -0.00786757 -0.0171179 7.35744 5.88008 -11.456 
9164 573 3 1.008 0.03 23.1842 11.8548 2.38066 23.1842 11.8548 2.38066 0 0 0 0.0109865 -0.00238526 -0.0160799 8.77381 -14.0588 9.31792 
9165 573 3 1.008 0.03 23.1426 10.9796 0.759907 23.1426 10.9796 0.759907 0 0 0 -0.0174238 -0.0181948 0.000312573 1.33196 26.9879 18.6767 
10454 665 9 24.305 2 17.367 16.7926 2.90536 66.5494 16.7926 2.90536 1 0 0 -0.000369217 -0.0014988 -0.00131954 -14.7565 -8.70842 -7.56584 
5067 317 3 1.008 0.03 16.9938 11.6948 6.64355 16.9938 110.059 6.64355 0 2 0 -0.00757385 0.00597457 -0.0228655 -2.42789 -2.17287 18.7513 
7160 448 3 1.008 0.03 21.6077 14.2654 6.88698 21.6077 -34.917 56.0693 0 -1 1 0.008974 -0.0180409 -0.0337785 2.82127 7.349 11.4497 
7800 488 3 1.008 0.03 20.3861 15.4561 3.66628 69.5685 15.4561 3.66628 1 0 0 -0.0135397 0.00780231 0.0220633 -18.4704 -15.2021 -15.863 
7807 488 3 1.008 0.03 16.8722 14.4696 5.87674 66.0545 14.4696 5.87674 1 0 0 -0.00861823 -0.00904299 0.0210083 5.85512 4.5607 -3.34098 