ITEM: TIMESTEP
3400000
ITEM: NUMBER OF ATOMS
10479
ITEM: BOX BOUNDS pp pp pp
4.0882558190751794e-01 4.9591174418091420e+01
4.0882558190751794e-01 4.9591174418091420e+01
4.0882558190751794e-01 4.9591174418091420e+01
ITEM: ATOMS id mol type mass q x y z xu yu zu ix iy iz vx vy vz fx fy fz 
10125 636 5 32.06 1.02 2.10284 7.66298 2.51161 2.10284 7.66298 51.694 0 0 1 0.00254385 0.00181336 0.00265408 7.62032 22.2844 33.6582 
10126 636 6 16 -0.53 3.08267 6.61872 2.80462 3.08267 6.61872 51.987 0 0 1 -0.00279153 0.00341351 -0.00616471 -23.0278 15.8295 -20.4057 
2249 141 3 1.008 0.03 2.28136 7.41001 5.83489 2.28136 7.41001 55.0172 0 0 1 -0.0140597 -0.00865976 0.00764992 10.1553 -0.394044 -6.73694 
5060 317 2 12.01 0.14 3.5236 2.80176 6.11461 3.5236 101.166 6.11461 0 2 0 0.00424392 0.00328948 0.00584445 0.534311 -1.27117 -29.8828 
5065 317 3 1.008 0.03 4.47807 2.24827 6.06509 4.47807 100.613 6.06509 0 2 0 -0.00567072 -0.0037825 0.016484 -10.4054 1.24731 -5.01926 
5066 317 3 1.008 0.03 2.91663 2.62329 5.19545 2.91663 100.988 5.19545 0 2 0 0.0215176 -0.0324562 0.0153195 14.3123 2.7878 10.7418 
2244 141 2 12.01 0.14 1.98722 8.08119 6.62501 1.98722 8.08119 55.8074 0 0 1 -0.00618498 0.00315967 0.000340798 -1.46865 -2.49872 -0.940261 
5058 317 1 16 -0.4 3.8079 4.20122 6.23751 3.8079 102.566 6.23751 0 2 0 -0.00102224 0.00480984 0.000696362 17.2356 2.83029 -13.6916 
5062 317 2 12.01 0.11 4.6145 4.69548 5.13471 4.6145 103.06 5.13471 0 2 0 -0.00425459 0.00360675 -0.00575161 -7.46501 -5.169 9.06488 
5070 317 3 1.008 0.03 4.10367 4.49218 4.21167 4.10367 102.857 4.21167 0 2 0 -0.00446183 0.0260644 -0.0191532 -7.14546 0.739408 -8.90069 
5072 317 3 1.008 0.03 5.58348 4.22551 5.00127 5.58348 102.59 5.00127 0 2 0 0.0151384 -0.000497442 0.000267809 2.53339 -6.0221 9.04571 
8824 552 3 1.008 0.03 7.51962 5.31865 2.08399 7.51962 103.683 100.449 0 2 2 -0.00227855 0.00827661 -0.0275584 8.05151 -4.75069 -12.5851 
8819 552 2 12.01 0.14 6.64096 5.11137 1.4667 6.64096 103.476 99.8314 0 2 2 -0.0014186 -0.00116574 -0.00482403 15.0451 -24.1114 10.7599 
8823 552 3 1.008 0.03 6.0496 4.60797 2.24121 6.0496 102.973 100.606 0 2 2 0.00657104 0.00520466 -0.0101736 -8.2247 -0.326163 -11.9889 
10117 636 4 14.01 -0.66 1.5086 7.90711 1.05258 1.5086 7.90711 50.2349 0 0 1 0.00275351 0.000235977 0.00441383 22.5589 -27.2933 16.9384 
5071 317 3 1.008 0.03 4.8097 5.76811 5.17007 4.8097 104.133 5.17007 0 2 0 -0.0251099 -0.00642459 -0.00888138 -4.53881 0.17434 5.08532 
7702 482 2 12.01 0.11 3.43031 2.44826 0.698565 150.977 51.6306 99.0633 3 1 2 0.000894057 0.00569567 0.00271834 -36.3299 58.9138 16.2657 
8820 552 2 12.01 0.14 6.07735 6.46559 1.11723 6.07735 104.83 99.4819 0 2 2 -0.00289984 -0.00198623 0.00313623 -32.101 19.507 -36.0736 
8826 552 3 1.008 0.03 5.64737 6.81965 2.06984 5.64737 105.184 100.435 0 2 2 -0.0216732 -0.0121067 0.00997166 0.0861781 7.01322 -13.1117 
7931 496 3 1.008 0.03 0.680541 4.50154 5.67046 0.680541 4.50154 54.8528 0 0 1 0.00317608 0.00634761 -0.00129153 -4.95762 11.9316 -0.280713 
7711 482 3 1.008 0.03 3.68479 2.1577 1.70898 151.232 51.34 100.074 3 1 2 0.012784 -0.00177315 0.00732571 5.81144 -0.0272715 3.6598 
5059 317 2 12.01 0.14 2.70656 2.29834 7.27524 2.70656 100.663 7.27524 0 2 0 -0.00682564 -0.00175007 0.00408624 15.4192 8.30097 31.4556 
2624 164 3 1.008 0.03 0.801812 1.19113 3.41187 -48.3805 50.3735 -45.7705 -1 1 -1 0.00168891 0.000463028 -0.0131818 -17.5427 5.12009 15.9353 
10127 636 6 16 -0.53 1.10232 7.89958 3.55218 1.10232 7.89958 52.7345 0 0 1 -0.00737312 0.00325665 0.00232057 -0.843788 -14.4756 -12.5536 
8827 552 3 1.008 0.03 7.02899 2.44658 1.11601 7.02899 100.811 99.4807 0 2 2 0.0209422 0.00823396 0.0119603 -18.0942 -17.281 24.8545 
5064 317 3 1.008 0.03 2.19768 1.35055 7.12385 2.19768 99.7152 7.12385 0 2 0 -0.0384252 0.0255985 0.00759745 -8.07347 2.93184 -8.92825 
8818 552 1 16 -0.4 7.07598 7.36916 0.623122 7.07598 105.734 98.9878 0 2 2 -0.0033312 -0.00371387 -0.000168573 6.4513 -29.5846 21.431 
8667 542 3 1.008 0.03 5.54439 1.96794 3.09772 5.54439 51.1503 52.2801 0 1 1 0.00107911 -0.00848188 0.000307607 -3.64641 5.46537 -17.6166 
8829 552 3 1.008 0.03 8.58864 3.25029 1.1842 8.58864 101.615 99.5489 0 2 2 -0.0133421 -0.0248318 -0.0393881 -16.9575 9.39198 -7.5794 
8821 552 2 12.01 0.11 7.62884 3.13866 0.624798 7.62884 101.503 98.9895 0 2 2 -0.000367792 0.00595789 -0.00581617 35.0132 -22.3138 1.36665 
8661 542 2 12.01 0.11 5.90779 0.978399 3.30895 5.90779 50.1607 52.4913 0 1 1 0.000811821 0.005228 -0.00115518 -29.1626 33.1205 66.8645 
8668 542 3 1.008 0.03 6.53396 1.27939 4.17748 6.53396 50.4617 53.3598 0 1 1 -0.0170291 -0.00219172 -0.00325381 8.29818 -11.1753 -20.0054 
2479 155 3 1.008 0.03 7.40988 4.29245 7.35468 -41.7725 201.022 -41.8277 -1 4 -1 -0.0313267 -0.0113591 0.013148 -9.58848 7.56816 -8.85954 
8669 542 3 1.008 0.03 6.42577 0.583043 2.48231 6.42577 49.7654 51.6647 0 1 1 -0.0139246 -0.0238736 -0.0232004 11.7655 -17.4024 -16.867 
7710 482 3 1.008 0.03 2.38632 2.18877 0.644181 149.933 51.3711 99.0089 3 1 2 0.0133742 -0.00212805 -0.0261239 -4.54537 -15.8589 -11.9029 
2242 141 1 16 -0.4 0.574449 8.1785 6.53723 0.574449 8.1785 55.7196 0 0 1 -0.00334333 -0.00131724 0.00436064 -16.8328 -5.23232 -3.5679 
7712 482 3 1.008 0.03 3.31372 3.59807 0.716486 150.861 52.7804 99.0812 3 1 2 0.0177957 0.0119328 -0.0087636 22.5068 -42.4026 -12.1863 
7627 477 3 1.008 0.03 10.7325 5.17283 3.3692 10.7325 5.17283 52.5515 0 0 1 0.0237367 -0.00159675 0.0115527 -13.9006 -8.41246 0.686583 
2467 155 2 12.01 0.14 9.96969 7.46111 6.70516 -39.2127 204.191 -42.4772 -1 4 -1 -0.00430358 -0.000378132 -0.0116193 30.433 -27.1516 -60.4366 
7270 455 2 12.01 0.11 10.8014 0.951523 2.76341 59.9838 0.951523 51.9458 1 0 1 -0.000144721 0.00010684 -0.00515509 39.4536 6.43805 4.43773 
7272 455 3 1.008 0.03 11.9443 1.52383 5.97609 61.1267 1.52383 55.1584 1 0 1 0.00714217 -0.00361201 0.00153238 6.32897 -2.49246 -4.17709 
7274 455 3 1.008 0.03 10.6574 3.28766 4.83731 59.8398 3.28766 54.0197 1 0 1 0.00155789 0.00249942 -0.00886515 -9.50089 8.64795 10.7635 
7268 455 2 12.01 0.14 10.3417 2.27464 4.64279 59.524 2.27464 53.8251 1 0 1 0.00423473 -0.00457974 -0.00530447 2.61199 -11.4107 52.8151 
8649 541 3 1.008 0.03 15.044 7.18563 3.16008 -34.1383 -41.9967 -46.0223 -1 -1 -1 0.00480948 0.019304 0.000987742 -8.56318 -20.7496 -13.37 
7266 455 1 16 -0.4 11.1513 2.12686 3.50355 60.3336 2.12686 52.6859 1 0 1 0.00266983 0.00425131 -0.0064623 -15.7497 -19.3375 -19.3281 
7621 477 2 12.01 0.11 11.6192 5.7652 3.39335 11.6192 5.7652 52.5757 0 0 1 -0.000797042 -0.00168064 -0.00508018 18.7053 -8.6472 -36.9775 
7628 477 3 1.008 0.03 12.1194 5.71722 2.39533 12.1194 5.71722 51.5777 0 0 1 -0.00528784 -0.0275805 0.00495079 -8.68996 0.948496 16.0428 
7629 477 3 1.008 0.03 12.2889 5.36831 4.11281 12.2889 5.36831 53.2952 0 0 1 0.0332109 -0.0283406 -0.019286 11.927 -12.9792 12.1042 
7617 477 1 16 -0.4 11.3868 7.05704 3.78048 11.3868 7.05704 52.9628 0 0 1 0.00677414 0.00469463 -0.00102176 -8.78857 36.2265 15.2172 
8646 541 2 12.01 0.11 14.9613 3.93816 2.84235 -34.2211 -45.2442 -46.34 -1 -1 -1 0.00016048 0.000957789 -0.00633916 22.5909 -42.6219 70.4947 
8642 541 1 16 -0.4 15.0213 5.20063 3.44503 -34.161 -43.9817 -45.7373 -1 -1 -1 -0.0016508 -0.000110976 -0.000699059 -7.8851 -22.2582 28.8681 
8656 541 3 1.008 0.03 14.5658 3.83866 1.93942 -34.6165 -45.3437 -47.2429 -1 -1 -1 -0.027064 0.000190307 -0.0395309 -25.0396 7.41808 -64.7072 
8644 541 2 12.01 0.14 15.2763 6.2317 2.61288 -33.9061 -42.9507 -46.5695 -1 -1 -1 -0.000341993 0.00118298 -0.00362847 -24.7088 62.282 -35.2962 
8655 541 3 1.008 0.03 14.2347 3.36235 3.45953 -34.9477 -45.82 -45.7228 -1 -1 -1 0.0134475 -0.0232778 -0.0088957 14.2117 6.38039 -5.89021 
6263 392 3 1.008 0.03 14.8819 2.90291 7.14852 14.8819 2.90291 105.513 0 0 2 -0.000278967 0.0088531 0.00790214 -1.87662 7.32622 6.12615 
8654 541 3 1.008 0.03 15.9167 3.35769 2.86537 -33.2656 -45.8247 -46.317 -1 -1 -1 0.015005 -0.0156135 -0.00475078 -12.5755 15.652 0.589841 
7267 455 2 12.01 0.14 10.8714 1.40877 5.8866 60.0538 1.40877 55.069 1 0 1 -0.000457207 0.00466555 -0.00242315 -28.8672 32.3269 9.42657 
8650 541 3 1.008 0.03 14.6521 6.16682 1.65603 -34.5302 -43.0155 -47.5263 -1 -1 -1 -0.0122757 0.0160222 0.0241003 17.3672 3.69635 31.8436 
6259 392 2 12.01 0.14 15.8841 2.50625 7.061 15.8841 2.50625 105.426 0 0 2 -0.00135805 0.00584277 -0.00217115 38.401 5.74501 -10.6479 
6269 392 3 1.008 0.03 16.1345 5.25903 6.44642 16.1345 5.25903 104.811 0 0 2 0.02654 -0.0261861 -0.00153821 3.045 -1.14229 12.9344 
7280 455 3 1.008 0.03 9.85213 0.898521 2.3822 59.0345 0.898521 51.5646 1 0 1 0.0166065 0.0112304 0.0113799 -39.0737 19.7293 -18.9061 
8643 541 2 12.01 0.14 16.7193 6.42973 2.28398 -32.463 -42.7526 -46.8984 -1 -1 -1 0.00248979 -0.00457991 0.00220409 0.0021144 24.8088 -15.8951 
8647 541 3 1.008 0.03 16.7931 7.2252 1.54807 -32.3893 -41.9572 -47.6343 -1 -1 -1 0.00648196 0.017957 0.0114173 -4.74479 -7.99083 -14.2864 
6264 392 3 1.008 0.03 15.9767 2.12118 6.04583 15.9767 2.12118 104.411 0 0 2 -0.0130085 -0.0016918 0.00909474 -3.35635 -2.28821 -0.638877 
7278 455 3 1.008 0.03 11.4916 0.819031 1.91358 60.6739 0.819031 51.0959 1 0 1 -0.00754428 0.00439723 -0.0143086 -3.65376 -2.70621 8.97346 
7273 455 3 1.008 0.03 9.21712 2.27783 4.62551 58.3995 2.27783 53.8079 1 0 1 0.0165374 -0.0149139 0.032999 23.3595 -2.00449 -16.0066 
6268 392 3 1.008 0.03 16.7778 4.09541 5.38845 16.7778 4.09541 103.753 0 0 2 -0.0154505 0.0118113 -0.0146603 17.2493 7.87272 -4.08928 
1004 63 3 1.008 0.03 14.103 7.35042 7.39074 14.103 7.35042 56.5731 0 0 1 0.0199425 -0.00906594 -0.011638 -12.3348 -14.3095 1.02077 
7624 477 3 1.008 0.03 9.57539 7.1866 2.64819 9.57539 7.1866 51.8305 0 0 1 0.00951683 -0.0139742 0.00668638 10.2521 7.76995 11.9916 
2473 155 3 1.008 0.03 9.17124 5.57046 6.18865 -40.0111 202.3 -42.9937 -1 4 -1 -0.00306587 0.00911296 0.00722643 2.26517 -11.026 -24.8255 
1005 63 3 1.008 0.03 14.2368 7.4365 5.53589 14.2368 7.4365 54.7182 0 0 1 -0.0025034 0.011396 0.00207021 -3.88244 -11.2773 7.89412 
7619 477 2 12.01 0.14 10.4817 7.76046 2.95045 10.4817 7.76046 52.1328 0 0 1 -0.00195722 0.000785536 -0.00226568 -6.71654 -11.2519 -36.2323 
7623 477 3 1.008 0.03 11.0214 7.9011 2.00599 11.0214 7.9011 51.1883 0 0 1 0.0020193 0.00906401 -0.00330891 0.314396 -13.042 1.93507 
7271 455 3 1.008 0.03 10.4658 1.79167 6.87901 59.6482 1.79167 56.0614 1 0 1 0.00874593 0.00112961 0.00160867 9.1846 -5.11943 -31.2487 
2472 155 3 1.008 0.03 10.8694 7.42806 6.01396 -38.3129 204.157 -43.1684 -1 4 -1 0.0116349 -0.0207398 -0.0144371 -24.6304 -7.25123 24.9842 
2471 155 3 1.008 0.03 9.25839 7.99704 6.10611 -39.924 204.726 -43.0762 -1 4 -1 -0.00545851 -0.00375284 7.39641e-05 -12.9879 7.88165 3.10038 
1003 63 3 1.008 0.03 15.5044 7.91684 6.62106 15.5044 7.91684 55.8034 0 0 1 0.00177953 -0.00520963 -0.0196767 16.4139 -0.720376 -1.09232 
2468 155 2 12.01 0.14 9.40651 6.08557 7.07708 -39.7758 202.815 -42.1053 -1 4 -1 0.00916817 0.00852639 0.00345434 -5.69181 2.96236 -8.12221 
997 63 2 12.01 0.11 14.4439 7.87118 6.51693 14.4439 7.87118 55.6993 0 0 1 0.000192399 -0.00577004 -0.00228462 5.76671 19.9246 -11.6877 
8523 533 3 1.008 0.03 12.9318 5.15178 7.38527 62.1142 54.3341 7.38527 1 1 0 0.000292967 0.0208163 0.00501179 13.7375 7.84077 49.1719 
5660 354 3 1.008 0.03 24.7105 1.82264 3.71429 -24.4719 51.005 3.71429 -1 1 0 0.00831594 -0.020082 0.00671862 -8.37325 -8.05686 8.70964 
8648 541 3 1.008 0.03 17.1075 5.52983 1.9103 -32.0748 -43.6525 -47.272 -1 -1 -1 -0.0162888 -0.000456916 0.01448 20.6954 -20.7675 -8.22746 
8641 541 1 16 -0.4 17.4186 7.05348 3.30356 -31.7638 -42.1289 -45.8788 -1 -1 -1 -0.00649171 -0.00493316 -0.0014158 13.269 -7.66385 33.0618 
10294 647 8 19 -0.16 23.9278 6.35877 4.42643 23.9278 55.5411 4.42643 0 1 0 0.00424858 0.00352099 0.000767829 -15.2215 -7.20275 -27.2 
8653 541 3 1.008 0.03 19.3209 6.5852 2.38926 -29.8614 -42.5971 -46.7931 -1 -1 -1 -0.0024006 -0.0113979 0.00556327 -19.404 20.9779 24.9704 
8645 541 2 12.01 0.11 18.7783 7.36984 3.02436 -30.4041 -41.8125 -46.158 -1 -1 -1 -0.000603229 0.0031857 0.000627645 17.768 -18.7303 -20.2668 
8651 541 3 1.008 0.03 18.772 8.27964 2.40465 -30.4104 -40.9027 -46.7777 -1 -1 -1 0.00513516 -0.0189756 -0.030475 5.37041 -3.82936 11.4134 
10290 647 5 32.06 1.02 23.8171 5.03025 6.65914 23.8171 54.2126 6.65914 0 1 0 0.00510004 -0.00209256 -2.06422e-05 2.35099 -25.9385 31.0187 
10291 647 6 16 -0.53 23.5976 3.63583 6.19542 23.5976 52.8182 6.19542 0 1 0 -0.000972315 -0.00624771 -0.00287621 -0.204895 41.3848 -9.53675 
6261 392 2 12.01 0.11 16.9496 4.53314 6.37634 16.9496 4.53314 104.741 0 0 2 -0.00517472 0.00389534 -0.00772407 -51.2996 -40.0154 -5.29162 
8652 541 3 1.008 0.03 19.3353 7.51332 3.98334 -29.847 -41.669 -45.199 -1 -1 -1 0.0381307 -0.00105816 -0.0140383 -7.97842 1.88849 -17.9443 
10321 649 6 16 -0.53 21.0575 2.75618 3.05866 21.0575 2.75618 3.05866 0 0 0 0.00178418 0.000933603 0.00211602 -10.0858 -13.2909 -5.49231 
10320 649 5 32.06 1.02 21.0278 1.48151 3.73889 21.0278 1.48151 3.73889 0 0 0 0.000293543 -0.00335717 -0.00124337 42.9373 46.5651 -6.00451 
10322 649 6 16 -0.53 21.6509 1.60289 5.05442 21.6509 1.60289 5.05442 0 0 0 0.00412584 0.00783884 0.000376095 3.55278 -20.8545 5.77496 
10324 649 8 19 -0.16 18.6887 2.00272 4.87361 18.6887 2.00272 4.87361 0 0 0 -0.00127619 0.00269422 -0.00357634 11.1849 5.3375 6.04395 
10458 669 9 24.305 2 22.9891 1.73968 6.67636 -26.1932 50.922 6.67636 -1 1 0 -0.00773767 -0.000895316 -0.000553578 -11.1388 4.56635 -21.729 
10323 649 7 12.01 0.35 19.3157 1.1364 4.09737 19.3157 1.1364 4.09737 0 0 0 -0.00246363 0.00119053 -0.000506488 -35.4715 -35.4583 6.41747 
10325 649 8 19 -0.16 18.5616 1.02692 3.03371 18.5616 1.02692 3.03371 0 0 0 -0.00216396 0.000552335 0.00301945 0.223976 4.03075 -17.1774 
10295 647 8 19 -0.16 21.8871 5.93535 5.1722 21.8871 55.1177 5.1722 0 1 0 0.00528828 0.00149722 -0.00178792 -14.6239 -14.0467 -34.1652 
10293 647 7 12.01 0.35 23.1134 6.25142 5.44829 23.1134 55.4338 5.44829 0 1 0 -0.00444234 -0.00712834 0.00371182 25.667 -8.60227 39.2 
5649 354 1 16 -0.4 24.3635 0.874042 5.56912 -24.8189 50.0564 5.56912 -1 1 0 -0.00296848 -0.0076092 -0.00212075 -14.8074 13.131 5.87235 
10296 647 8 19 -0.16 22.9914 7.47129 5.8996 22.9914 56.6536 5.8996 0 1 0 0.00146169 0.00168562 0.00299641 9.55716 10.7328 14.8537 
10139 637 8 19 -0.16 23.1425 8.16962 1.75912 -26.0399 57.352 1.75912 -1 1 0 -0.000789965 0.0035722 0.00153727 7.02047 -33.7802 3.39945 
10319 649 8 19 -0.16 23.9808 0.43816 1.88673 23.9808 0.43816 1.88673 0 0 0 0.00021912 0.00115794 0.000734444 17.6611 -12.6437 25.8764 
6267 392 3 1.008 0.03 17.865 4.9561 6.5457 17.865 4.9561 104.91 0 0 2 0.0109901 -0.00575118 0.0074706 39.749 27.8904 -7.14711 
6257 392 1 16 -0.4 16.9511 3.43577 7.28678 16.9511 3.43577 105.651 0 0 2 0.00630945 0.00332342 0.00473183 -19.7938 9.23856 -0.635956 
10316 649 7 12.01 0.35 23.102 0.765832 1.00332 23.102 0.765832 1.00332 0 0 0 0.00609818 0.00601645 0.000948005 -7.68457 34.906 7.83769 
10317 649 8 19 -0.16 23.0994 2.07275 0.988615 23.0994 2.07275 0.988615 0 0 0 -0.00184407 0.00349755 -0.00677058 -1.00842 14.802 0.120784 
10315 649 6 16 -0.53 20.5005 0.920169 0.588676 20.5005 0.920169 0.588676 0 0 0 -0.00482795 0.00243161 -0.00384967 36.7412 -18.5164 28.6273 
2031 127 3 1.008 0.03 19.7593 2.06813 7.24472 -29.4231 51.2505 7.24472 -1 1 0 0.00590925 -0.0147417 0.0231013 -12.6205 -7.81632 -16.2038 
10289 647 8 19 -0.16 20.7689 7.264 7.43427 20.7689 56.4463 7.43427 0 1 0 0.000297036 -0.00268563 0.00171899 -7.62 11.3556 -24.1145 
5077 318 2 12.01 0.11 7.63997 12.8618 1.11237 7.63997 160.409 99.4771 0 3 2 -0.00077884 -0.0108608 0.00809213 -8.78544 -47.018 10.3763 
10128 636 7 12.01 0.35 3.0873 9.21122 2.72637 3.0873 9.21122 51.9087 0 0 1 -0.00306761 0.00281383 -0.00337398 -7.63538 28.3115 -6.28037 
10131 636 8 19 -0.16 3.64844 9.4251 3.9418 3.64844 9.4251 53.1242 0 0 1 0.000711538 0.00148861 -0.00461078 -17.5657 -15.4694 -23.1829 
10129 636 8 19 -0.16 4.10549 9.21082 1.86671 4.10549 9.21082 51.0491 0 0 1 -0.005077 0.00131181 -0.00394663 -11.1128 11.9263 0.750415 
2247 141 3 1.008 0.03 3.68044 9.27862 6.24054 3.68044 9.27862 55.4229 0 0 1 -0.00880597 -0.00353439 -0.0354314 10.1294 0.0618914 0.687017 
2243 141 2 12.01 0.14 2.6753 9.4189 6.59983 2.6753 9.4189 55.7822 0 0 1 0.000749155 -0.00484866 0.00133223 -14.5876 27.6501 -37.4027 
2241 141 1 16 -0.4 1.95887 10.2128 5.60252 1.95887 10.2128 54.7849 0 0 1 8.84932e-05 -0.00625351 0.000203617 4.39546 -15.7065 20.6944 
10130 636 8 19 -0.16 2.26245 10.2849 2.47843 2.26245 10.2849 51.6608 0 0 1 0.00115787 0.000610161 0.00305417 41.2611 -28.3716 3.47971 
4428 277 3 1.008 0.03 2.66269 13.4667 2.37511 101.027 13.4667 100.74 2 0 2 0.00158666 -0.0129822 -0.00235432 8.57062 0.947636 -1.16829 
2251 141 3 1.008 0.03 2.67798 11.9249 6.72738 2.67798 11.9249 55.9097 0 0 1 -0.0120373 -0.0124772 -0.00549162 -24.31 -15.1979 -36.6436 
2245 141 2 12.01 0.11 1.95364 11.6017 5.8819 1.95364 11.6017 55.0642 0 0 1 -0.00255054 -0.000378875 0.00360009 47.1101 17.2564 40.9967 
9142 572 2 12.01 0.11 5.16316 13.0793 4.72845 103.528 62.2616 4.72845 2 1 0 -0.0107663 -0.000869173 -0.00155761 -49.279 -0.135133 7.00954 
9138 572 1 16 -0.4 5.71393 13.8946 3.74342 104.079 63.0769 3.74342 2 1 0 0.00279772 0.00125557 7.66248e-05 19.3707 15.3449 -7.59177 
9140 572 2 12.01 0.14 6.06675 15.2076 4.18266 104.431 64.39 4.18266 2 1 0 -0.0010584 0.00402659 -0.00699757 -19.2418 -37.252 0.905791 
9145 572 3 1.008 0.03 5.28622 15.5118 4.83094 103.651 64.6941 4.83094 2 1 0 -0.016887 0.00892382 -0.0248252 -14.2976 13.7802 12.0286 
9150 572 3 1.008 0.03 5.69326 12.9149 5.64591 104.058 62.0972 5.64591 2 1 0 0.0122511 -0.0191455 0.0331924 18.5888 -1.56873 3.36485 
9152 572 3 1.008 0.03 4.98793 12.0965 4.22586 103.353 61.2789 4.22586 2 1 0 0.00174257 -0.0129622 -0.0105245 -5.95008 14.5953 15.0147 
9146 572 3 1.008 0.03 6.02096 15.877 3.3528 104.386 65.0594 3.3528 2 1 0 -0.0107579 -0.0230503 -0.015446 9.14761 10.8777 -11.764 
9143 572 3 1.008 0.03 7.3261 14.4977 5.81455 105.691 63.6801 5.81455 2 1 0 -0.0207575 -0.00511456 -0.0127806 0.54018 -3.8768 -3.28662 
9139 572 2 12.01 0.14 7.34604 15.1802 4.96473 105.711 64.3625 4.96473 2 1 0 0.00437594 -0.00941328 0.00114896 -5.60056 -1.45175 15.5407 
9137 572 1 16 -0.4 8.35047 14.8785 4.05403 106.715 64.0608 4.05403 2 1 0 0.00388818 0.00113869 -0.000797935 20.2973 3.41616 -12.527 
9144 572 3 1.008 0.03 7.37911 16.1541 5.39983 105.744 65.3365 5.39983 2 1 0 0.0192447 0.00348334 -0.00623093 15.7619 15.5658 3.9874 
4427 277 3 1.008 0.03 3.9719 14.5864 1.9379 102.337 14.5864 100.303 2 0 2 -0.00667641 0.00104973 -0.00683471 2.40813 10.6326 7.67954 
4421 277 2 12.01 0.11 3.53451 13.6317 1.72182 101.899 13.6317 100.087 2 0 2 -0.00381546 0.00613836 -0.000297261 -26.5887 11.8468 -12.8913 
4429 277 3 1.008 0.03 4.28863 12.9058 1.91762 102.653 12.9058 100.282 2 0 2 -0.00235176 -0.0284411 0.0315376 8.97268 -15.6785 -2.07179 
2253 141 3 1.008 0.03 1.0157 11.9847 6.20147 1.0157 11.9847 55.3838 0 0 1 -0.00466819 -0.0126799 -0.0158911 -20.6302 -1.53651 4.11151 
1712 107 3 1.008 0.03 1.04053 15.7341 1.6954 50.2229 163.281 198.425 1 3 4 -0.0162747 0.0227929 0.000677702 -5.24734 -7.83665 17.2874 
2252 141 3 1.008 0.03 2.20924 12.1629 5.00035 2.20924 12.1629 54.1827 0 0 1 -0.00457992 -0.00759663 -0.00106622 3.40745 2.77519 -8.89624 
5085 318 3 1.008 0.03 8.33314 12.8125 1.95174 8.33314 160.36 100.316 0 3 2 -0.00225335 0.0106782 0.00403003 -1.5608 -0.458076 -0.267906 
9151 572 3 1.008 0.03 4.22393 13.6173 5.09663 102.589 62.7997 5.09663 2 1 0 0.0247737 0.0111653 -0.0265099 20.8526 -28.1764 -16.9104 
5084 318 3 1.008 0.03 6.59892 12.949 1.49174 6.59892 160.496 99.8564 0 3 2 -0.00984397 -0.0168146 0.0266104 15.4494 5.61026 -2.87608 
1702 107 2 12.01 0.11 0.886961 16.2682 0.788684 50.0693 163.815 197.518 1 3 4 -0.00368131 0.00428303 0.00507687 -4.01526 22.79 -1.93533 
4424 277 3 1.008 0.03 1.84428 12.2098 0.55897 100.209 12.2098 98.9237 2 0 2 0.0178775 -0.0139761 -0.0225564 9.97684 -5.19282 -13.5605 
8830 552 3 1.008 0.03 6.36897 9.26814 1.28524 6.36897 107.633 99.6499 0 2 2 -0.0079475 -0.0186848 0.00651939 5.79837 -4.64339 10.6068 
7632 477 3 1.008 0.03 8.29469 11.0098 3.16845 8.29469 11.0098 52.3508 0 0 1 0.00949262 0.00741325 0.0262141 -1.3349 0.167974 -0.246419 
7630 477 3 1.008 0.03 7.90788 10.9943 4.86507 7.90788 10.9943 54.0474 0 0 1 -0.0278619 0.00456545 0.011759 -1.89408 -13.0851 1.11507 
5083 318 3 1.008 0.03 7.92902 13.6882 0.52681 7.92902 161.235 98.8915 0 3 2 -0.00331 0.00670039 0.0121245 4.83772 25.6455 -8.87338 
8822 552 2 12.01 0.11 6.59127 8.64914 0.424297 6.59127 107.014 98.789 0 2 2 -0.00210347 0.00677861 0.0084213 2.64865 16.059 -10.0258 
4631 290 3 1.008 0.03 8.6191 16.4373 2.31726 -40.5632 16.4373 -46.8651 -1 0 -1 -0.00605608 0.0190252 0.0102556 25.1105 26.9057 -16.5642 
6539 409 3 1.008 0.03 14.1876 15.2189 2.71843 112.552 15.2189 51.9008 2 0 1 0.00205397 0.000579779 0.00927655 -3.5903 8.81181 1.37856 
6541 409 3 1.008 0.03 14.0064 15.9774 1.04983 112.371 15.9774 50.2322 2 0 1 0.0172087 -0.00376517 0.00564194 7.15529 -1.19145 9.37493 
420 27 2 12.01 0.14 16.2692 11.4586 0.546605 16.2692 60.6409 49.729 0 1 1 0.00111034 -0.000826444 -2.48942e-06 27.2516 22.3443 -12.0423 
419 27 2 12.01 0.14 15.2188 10.3921 0.561386 15.2188 59.5745 49.7437 0 1 1 0.00151371 -0.00156328 0.000355835 -4.7889 -32.6711 -58.6187 
6537 409 3 1.008 0.03 12.284 11.9033 1.62012 110.649 11.9033 50.8025 2 0 1 0.0305276 0.0111358 -0.0258161 9.20346 -31.1773 16.6945 
6538 409 3 1.008 0.03 10.7094 12.4601 1.16743 109.074 12.4601 50.3498 2 0 1 -0.018779 0.00747574 0.0113826 -11.2195 13.6109 18.0587 
424 27 3 1.008 0.03 15.1582 10.0086 1.5498 15.1582 59.191 50.7321 0 1 1 -0.019216 0.0285937 -0.0284199 -12.9023 -8.90422 16.7403 
2418 152 1 16 -0.4 11.686 13.0067 6.61204 -135.861 62.1891 104.977 -3 1 2 -0.00069605 0.00289868 0.00154877 10.4323 -5.6246 -24.062 
9148 572 3 1.008 0.03 9.81924 14.1056 5.22728 108.184 63.2879 5.22728 2 1 0 0.0195184 -1.30937e-05 -0.0203047 2.15533 -14.4086 7.66234 
9141 572 2 12.01 0.11 9.68156 14.921 4.5559 108.046 64.1033 4.5559 2 1 0 0.00773999 -0.00132893 -0.00686292 -8.00287 13.2227 5.40868 
7618 477 1 16 -0.4 9.1701 9.46909 4.12517 9.1701 9.46909 53.3075 0 0 1 0.00457144 0.00157591 -0.00776089 -8.53026 -29.7591 26.8885 
7626 477 3 1.008 0.03 9.83323 9.58477 2.2467 9.83323 9.58477 51.4291 0 0 1 -0.0261843 -0.0127292 -0.0202108 4.04463 2.10644 11.2445 
9149 572 3 1.008 0.03 10.3526 14.783 3.70688 108.717 63.9654 3.70688 2 1 0 -0.0158751 -0.0156341 0.00227044 3.78756 2.90085 4.02245 
9147 572 3 1.008 0.03 9.94331 15.8255 5.14696 108.308 65.0079 5.14696 2 1 0 0.00804004 0.02155 0.0301523 -5.7155 -6.78761 -14.3985 
7620 477 2 12.01 0.14 10.2017 9.22541 3.22865 10.2017 9.22541 52.411 0 0 1 0.000242636 0.00026468 -0.000180684 -3.22528 8.91599 -30.1809 
7625 477 3 1.008 0.03 11.0979 9.78834 3.41515 11.0979 9.78834 52.5975 0 0 1 -0.013497 0.00480041 0.00642408 8.40855 4.78626 8.02786 
2426 152 3 1.008 0.03 12.2034 14.7846 6.03954 -135.344 63.967 104.404 -3 1 2 -0.0251253 -0.00709316 -0.025952 19.1275 5.15974 -12.7073 
2425 152 3 1.008 0.03 13.4858 13.9725 6.96404 -134.061 63.1548 105.329 -3 1 2 -0.0226086 0.0151947 0.0103463 4.62056 2.82776 11.1061 
2420 152 2 12.01 0.14 12.7481 13.8457 6.19358 -134.799 63.0281 104.558 -3 1 2 -0.0060589 0.00149791 0.00206991 -4.86741 -17.3472 -16.0135 
2417 152 1 16 -0.4 13.7623 11.8137 5.261 -133.785 60.9961 103.626 -3 1 2 0.00285363 0.00291523 0.00184627 5.45982 35.7348 18.7873 
2419 152 2 12.01 0.14 13.4495 13.204 4.93762 -134.098 62.3864 103.302 -3 1 2 0.00444415 0.000472498 0.00216994 26.9382 7.39468 45.0667 
2423 152 3 1.008 0.03 14.3738 13.8254 4.70248 -133.173 63.0077 103.067 -3 1 2 0.0221124 0.00273608 -3.36218e-05 -27.6584 -20.9839 -1.24234 
2421 152 2 12.01 0.11 14.2045 10.9931 4.2282 -133.343 60.1755 102.593 -3 1 2 -0.00330272 -0.00849002 0.00632341 -46.9964 41.0209 -38.2629 
993 63 1 16 -0.4 13.9546 9.1897 6.46846 13.9546 9.1897 55.6508 0 0 1 0.00524024 -0.00069226 -0.00867893 2.94976 -5.77973 -9.86269 
2424 152 3 1.008 0.03 12.7351 13.2746 4.18898 -134.812 62.457 102.554 -3 1 2 0.0135334 0.00661405 -0.0142612 -17.5221 -1.17188 -33.4618 
2427 152 3 1.008 0.03 14.8986 10.2911 4.4113 -132.648 59.4734 102.776 -3 1 2 0.00443358 0.0221525 -0.0077391 49.5769 -30.051 15.6528 
2429 152 3 1.008 0.03 14.3091 11.5096 3.27847 -133.238 60.6919 101.643 -3 1 2 -0.0201691 0.0143213 0.019237 13.1144 3.8703 0.0340337 
2428 152 3 1.008 0.03 13.3742 10.3838 4.00333 -134.173 59.5662 102.368 -3 1 2 0.014033 -0.034847 0.0121353 -20.1965 -13.3961 -2.51747 
6540 409 3 1.008 0.03 15.467 15.0516 1.59575 113.832 15.0516 50.7781 2 0 1 -0.0281119 0.00492842 0.0101775 13.5289 5.83149 -5.9292 
4949 310 2 12.01 0.11 16.5522 13.6101 6.99648 65.7345 13.6101 6.99648 1 0 0 -0.000937832 0.00292681 0.00960586 -5.50667 8.93101 28.1968 
6535 409 3 1.008 0.03 12.0007 14.3092 2.00732 110.365 14.3092 51.1897 2 0 1 -0.00536968 -0.0196792 -0.00317718 -15.644 26.4431 43.764 
4956 310 3 1.008 0.03 15.809 13.2417 6.29981 64.9914 13.2417 6.29981 1 0 0 0.0179783 -0.0259722 0.0120919 2.27061 3.05189 -7.90476 
6529 409 1 16 -0.4 13.8438 13.9197 1.23523 112.208 13.9197 50.4176 2 0 1 0.0021534 0.00255019 -0.0028686 17.5724 -18.7613 5.64194 
4952 310 3 1.008 0.03 16.5721 14.9521 4.78219 65.7544 14.9521 4.78219 1 0 0 0.0349248 0.00351819 0.00763816 22.2508 -6.20663 0.870802 
1001 63 3 1.008 0.03 15.9226 10.8008 7.33178 15.9226 10.8008 56.5141 0 0 1 -0.00740243 -0.00515786 0.00727525 -12.1501 8.3805 -6.20495 
6532 409 2 12.01 0.14 11.7603 12.5238 0.967336 110.125 12.5238 50.1497 2 0 1 0.00400273 0.00478821 0.00146105 18.7261 27.9623 -15.1661 
2475 155 3 1.008 0.03 11.2237 10.0584 7.16922 -37.9586 206.788 -42.0131 -1 4 -1 0.0247362 -0.0180166 -0.0127776 1.45381 -18.0797 -12.133 
6533 409 2 12.01 0.11 14.403 15.1488 1.66222 112.768 15.1488 50.8446 2 0 1 -0.00648877 0.00232148 0.00412103 -16.9894 -13.8406 -6.84412 
7631 477 3 1.008 0.03 9.41801 11.494 4.38743 9.41801 11.494 53.5698 0 0 1 -0.0130493 -0.0178875 0.0153701 26.6699 13.4913 2.68198 
426 27 3 1.008 0.03 15.9406 12.3428 1.11099 15.9406 61.5252 50.2933 0 1 1 0.0220163 -0.0155628 0.00882982 -1.05553 -9.82424 2.33339 
7622 477 2 12.01 0.11 8.6983 10.7683 4.14785 8.6983 10.7683 53.3302 0 0 1 -0.00200669 0.00513944 0.000578831 -27.2113 21.188 -10.0796 
6531 409 2 12.01 0.14 12.4483 13.9011 1.19493 110.813 13.9011 50.3773 2 0 1 -0.000923735 0.00528238 0.00261055 -14.2867 -16.2576 -60.8618 
2476 155 3 1.008 0.03 9.39022 9.8016 7.34373 -39.7921 206.531 -41.8386 -1 4 -1 -0.00652481 0.0031449 0.0415306 56.7111 -5.01717 18.1502 
4683 293 3 1.008 0.03 23.0853 12.2029 6.7598 -26.097 61.3853 55.9421 -1 1 1 -0.0162656 -0.00613763 -0.000823737 23.5802 38.0957 -2.53814 
422 27 2 12.01 0.11 18.2352 10.1038 0.456527 18.2352 59.2861 49.6389 0 1 1 -0.00738901 -0.00158395 -0.00390338 9.33775 -34.8806 -15.3088 
10136 637 7 12.01 0.35 22.5175 9.20287 1.31046 -26.6648 58.3852 1.31046 -1 1 0 -0.00324877 0.0027651 -0.000277486 -20.606 39.5715 -17.0966 
10138 637 8 19 -0.16 21.4978 9.42635 2.1357 -27.6846 58.6087 2.1357 -1 1 0 0.00221936 0.000652307 -0.00394351 12.0928 6.30198 4.06641 
4678 293 2 12.01 0.11 17.8971 10.5754 5.46645 -31.2852 59.7578 54.6488 -1 1 1 -0.00287802 0.00550542 0.00115269 -22.8357 -13.1965 6.03524 
4686 293 3 1.008 0.03 17.8028 9.743 4.74732 -31.3796 58.9253 53.9297 -1 1 1 -0.00454415 -0.0164332 0.00670184 1.8467 3.02627 9.54259 
4688 293 3 1.008 0.03 17.0377 11.229 5.24896 -32.1446 60.4113 54.4313 -1 1 1 -0.00811371 0.00516275 0.00166812 9.8407 -1.03235 0.515387 
4687 293 3 1.008 0.03 17.7391 10.2527 6.5262 -31.4432 59.435 55.7085 -1 1 1 0.0324256 -0.0239632 -0.0334869 13.0849 -2.80214 -22.8147 
4957 310 3 1.008 0.03 17.3016 12.8773 7.14339 66.484 12.8773 7.14339 1 0 0 -0.00945665 -0.0103386 -0.0120809 10.4596 -21.5921 -1.64429 
4674 293 1 16 -0.4 19.105 11.2682 5.311 -30.0773 60.4506 54.4934 -1 1 1 -0.000636279 0.00303655 -0.00316482 -7.56867 18.1609 7.69263 
4681 293 3 1.008 0.03 20.1623 10.1969 3.92654 -29.02 59.3792 53.1089 -1 1 1 -0.0177196 0.00079792 -0.0362054 6.75446 11.697 16.8779 
4676 293 2 12.01 0.14 20.214 10.473 5.00874 -28.9684 59.6553 54.1911 -1 1 1 -0.00467912 -0.00147499 0.00528582 32.0246 -35.9391 -10.8684 
10134 637 6 16 -0.53 24.2165 10.7621 2.45885 -24.9658 59.9445 2.45885 -1 1 0 -0.00167009 -0.0027628 -0.00746824 1.22418 4.46441 14.8618 
10133 637 5 32.06 1.02 23.7076 10.6093 1.12772 -25.4747 59.7917 1.12772 -1 1 0 0.00230583 -0.00453136 0.00138826 -12.9037 42.9974 19.7428 
10113 635 7 12.01 0.35 24.5591 15.1379 6.48462 122.924 64.3203 6.48462 2 1 0 0.00625831 0.00114582 0.00397678 10.0263 16.6985 -28.4372 
7808 488 3 1.008 0.03 21.0226 14.2759 6.81206 70.2049 14.2759 6.81206 1 0 0 0.00594482 -0.00710681 -0.00631357 -16.7728 3.00388 10.6662 
10116 635 8 19 -0.16 24.2493 16.4336 6.31506 122.614 65.616 6.31506 2 1 0 -0.00507057 -0.00214472 0.000116877 2.84585 -15.183 18.0304 
10115 635 8 19 -0.16 23.4698 14.5006 6.08009 121.835 63.6829 6.08009 2 1 0 0.00444783 -0.000386384 0.00188748 4.56906 -10.03 3.60793 
4675 293 2 12.01 0.14 21.4885 11.2322 5.4641 -27.6938 60.4146 54.6465 -1 1 1 0.00172339 0.00660677 0.00103765 -47.0228 -2.82924 -1.62669 
3158 198 2 12.01 0.11 19.3586 12.7498 2.42892 117.723 12.7498 51.6113 2 0 1 0.00100948 0.00431065 -0.000843334 -13.3903 4.17592 2.21283 
3166 198 3 1.008 0.03 18.4618 12.3875 2.89114 116.826 12.3875 52.0735 2 0 1 0.0239218 0.0179402 0.00724081 -6.58646 -4.17298 10.7097 
4673 293 1 16 -0.4 21.4697 11.112 6.86658 -27.7127 60.2943 56.0489 -1 1 1 0.000784885 0.00109888 -0.00357406 16.8291 -2.13635 8.00629 
3168 198 3 1.008 0.03 20.0764 11.9982 2.33003 118.441 11.9982 51.5124 2 0 1 0.00227918 0.0151807 0.00220095 9.37304 -34.682 -10.1977 
3167 198 3 1.008 0.03 19.073 13.158 1.49568 117.438 13.158 50.678 2 0 1 0.0073849 0.0130196 0.00349596 -2.11229 4.2216 -22.7724 
3162 198 3 1.008 0.03 22.0107 13.0859 3.01542 120.375 13.0859 52.1978 2 0 1 -0.00707894 0.0161664 0.014668 -2.74477 0.0394253 -5.22943 