ITEM: TIMESTEP
2800000
ITEM: NUMBER OF ATOMS
10479
ITEM: BOX BOUNDS pp pp pp
4.0882558190751794e-01 4.9591174418091420e+01
4.0882558190751794e-01 4.9591174418091420e+01
4.0882558190751794e-01 4.9591174418091420e+01
ITEM: ATOMS id mol type mass q x y z xu yu zu ix iy iz vx vy vz fx fy fz 
10461 672 9 24.305 2 6.20686 4.86957 4.31166 6.20686 4.86957 53.494 0 0 1 0.000213748 -0.00329145 -0.00241195 16.8923 29.8109 -10.3379 
7922 496 1 16 -0.4 7.68953 6.14158 3.95161 7.68953 6.14158 53.134 0 0 1 -0.00755279 0.0024946 -0.00185782 29.6652 15.9578 16.5718 
7921 496 1 16 -0.4 6.11214 5.74345 6.0024 6.11214 5.74345 55.1847 0 0 1 -0.00754638 0.00765187 -0.00942208 -15.0933 -4.18513 9.02749 
7925 496 2 12.01 0.11 5.11067 5.82573 7.03861 5.11067 5.82573 56.221 0 0 1 0.000520773 0.00460749 -0.00526179 23.9909 -18.592 -7.85222 
961 61 1 16 -0.4 7.60591 3.66092 5.01113 7.60591 3.66092 54.1935 0 0 1 0.000582507 0.000888633 -0.000803381 21.0442 -1.8644 39.6703 
2242 141 1 16 -0.4 4.81048 3.75477 4.67676 4.81048 3.75477 53.8591 0 0 1 0.00534894 0.000298219 0.00136804 -20.5487 -42.6276 3.38445 
2254 141 3 1.008 0.03 6.00229 2.21379 5.02739 6.00229 2.21379 54.2097 0 0 1 -0.0178961 0.00223057 -0.00129349 -5.42082 -25.0694 11.7323 
2246 141 2 12.01 0.11 4.95547 2.32355 4.82937 4.95547 2.32355 54.0117 0 0 1 0.0025816 -0.000954263 -0.00520327 6.1535 48.7382 -2.27253 
2256 141 3 1.008 0.03 4.77429 1.83088 3.90834 4.77429 1.83088 53.0907 0 0 1 0.0148667 0.013634 0.0222107 -11.1779 -13.9162 -14.5904 
2255 141 3 1.008 0.03 4.31457 2.01214 5.63458 4.31457 2.01214 54.8169 0 0 1 0.0041921 -0.0126518 0.016547 1.4189 -18.2437 9.2567 
962 61 1 16 -0.4 6.6073 4.11649 2.62306 6.6073 4.11649 51.8054 0 0 1 -0.00449179 0.00187507 0.00540363 -0.494574 -8.8522 -4.37489 
10127 636 6 16 -0.53 5.10025 6.38387 3.42923 5.10025 6.38387 52.6116 0 0 1 -0.00681505 -0.00201611 -0.00526812 8.82367 -21.7086 5.44893 
2244 141 2 12.01 0.14 3.42238 4.06781 4.71381 3.42238 4.06781 53.8962 0 0 1 -0.000680945 0.00064568 0.00209692 1.93543 34.0177 -6.42603 
2250 141 3 1.008 0.03 2.8819 3.56761 5.47254 2.8819 3.56761 54.6549 0 0 1 0.0213048 0.000982065 0.0148344 -6.96655 -9.37795 20.5289 
2243 141 2 12.01 0.14 2.68892 3.79274 3.39843 2.68892 3.79274 52.5808 0 0 1 0.00562294 -0.000631652 0.00867678 -15.9098 12.9473 -5.45365 
2248 141 3 1.008 0.03 2.69976 2.74156 3.11601 2.69976 2.74156 52.2984 0 0 1 -0.0158205 -0.0204811 -0.0136434 -0.069385 -2.20863 7.57663 
2249 141 3 1.008 0.03 3.41133 5.1395 5.01382 3.41133 5.1395 54.1962 0 0 1 0.000607748 0.0118514 -0.00368351 -10.7736 -14.4753 -10.7375 
970 61 3 1.008 0.03 6.87404 2.04599 2.76006 6.87404 2.04599 51.9424 0 0 1 -0.0126915 0.050737 0.0131923 7.89697 23.2727 -3.33767 
964 61 2 12.01 0.14 7.45836 3.00497 2.68634 7.45836 3.00497 51.8687 0 0 1 -0.00294166 -0.00683838 9.45679e-07 5.49913 -52.8536 26.4196 
7923 496 2 12.01 0.14 6.99426 6.81465 6.22292 6.99426 6.81465 55.4053 0 0 1 -0.0021886 0.00430173 -0.00171406 12.9352 6.81839 -22.1579 
2247 141 3 1.008 0.03 1.61419 4.11256 3.47452 1.61419 4.11256 52.6569 0 0 1 0.00899151 -0.0131569 0.00744193 20.8018 -6.53626 0.271443 
966 61 2 12.01 0.11 6.14466 4.17091 1.29446 6.14466 4.17091 50.4768 0 0 1 0.00305997 0.000689221 -0.00278469 0.312893 25.2777 10.8025 
2241 141 1 16 -0.4 3.3335 4.52284 2.37051 3.3335 4.52284 51.5529 0 0 1 -0.000149928 -0.00818408 -0.00120157 -19.5453 -6.22791 -22.9613 
975 61 3 1.008 0.03 5.61554 3.24709 0.993151 5.61554 3.24709 50.1755 0 0 1 0.00186948 0.0153093 0.0113058 9.79294 9.19714 -9.10517 
976 61 3 1.008 0.03 5.47057 5.00497 1.29643 5.47057 5.00497 50.4788 0 0 1 0.00402105 -0.0224812 0.0282052 -15.2869 -0.41586 -5.8536 
5846 366 2 12.01 0.11 0.629478 1.82376 6.9195 0.629478 1.82376 -42.2628 0 0 -1 -0.00681202 -0.00310952 -0.00224613 40.905 -4.4529 2.46459 
5842 366 1 16 -0.4 0.576698 3.14723 6.45633 0.576698 3.14723 -42.726 0 0 -1 0.00145161 0.00940246 -0.00683069 -13.2189 12.0363 0.59989 
10131 636 8 19 -0.16 3.43269 7.09646 0.950591 3.43269 7.09646 50.1329 0 0 1 0.0089887 -0.00522567 3.20562e-05 -1.8278 10.7795 -45.0166 
10117 636 4 14.01 -0.66 5.79518 8.10752 1.75779 5.79518 8.10752 50.9401 0 0 1 0.00374242 -0.00506411 -0.00553251 12.684 22.0609 9.27096 
2251 141 3 1.008 0.03 2.88048 3.06146 0.911777 2.88048 3.06146 50.0941 0 0 1 0.00403532 0.00349412 -0.00765969 -17.4862 64.2482 2.6525 
10125 636 5 32.06 1.02 4.89977 7.73937 2.99864 4.89977 7.73937 52.181 0 0 1 -0.000511425 -0.00593848 -0.00119285 -16.7409 -15.3044 -60.1479 
10129 636 8 19 -0.16 2.36395 6.93354 2.65249 2.36395 6.93354 51.8348 0 0 1 -0.00357355 0.00281521 -0.00136708 -5.08352 6.89313 15.1588 
10128 636 7 12.01 0.35 3.25906 7.7045 2.07044 3.25906 7.7045 51.2528 0 0 1 0.00238492 -0.00252349 -0.00266065 11.6999 14.0473 68.4553 
2245 141 2 12.01 0.11 2.67263 4.21494 1.10628 2.67263 4.21494 50.2886 0 0 1 0.000769096 -0.00627761 0.00930133 15.2653 -71.7463 28.4315 
2252 141 3 1.008 0.03 1.60451 4.43792 1.12412 1.60451 4.43792 50.3065 0 0 1 -0.00841664 0.00416681 0.00414717 0.994306 -6.92334 9.78411 
7931 496 3 1.008 0.03 4.52928 4.9128 7.08029 4.52928 4.9128 56.2626 0 0 1 -0.013434 0.00120905 0.0199371 -13.5067 5.02419 -9.9194 
965 61 2 12.01 0.11 8.28058 3.26964 6.27868 8.28058 3.26964 55.461 0 0 1 0.00341498 0.000711118 -0.0056815 -78.7266 0.365915 -36.3641 
963 61 2 12.01 0.14 8.33418 3.12554 3.935 8.33418 3.12554 53.1174 0 0 1 -0.0018154 -0.000856667 -0.00537919 4.08603 -31.4282 -34.4116 
7924 496 2 12.01 0.14 8.09683 6.85861 5.17135 8.09683 6.85861 54.3537 0 0 1 -0.00188981 0.00121206 -0.00229508 36.4664 -26.5035 -6.18361 
969 61 3 1.008 0.03 8.1734 2.82275 1.88681 8.1734 2.82275 51.0692 0 0 1 -0.00739767 -0.00617467 -0.00444414 -11.8784 7.16034 -8.75544 
971 61 3 1.008 0.03 7.79881 3.93955 7.05836 7.79881 3.93955 56.2407 0 0 1 -0.0267483 0.0196803 -0.0165122 22.5295 -24.5088 -10.3293 
7936 496 3 1.008 0.03 8.39614 5.6271 2.13642 8.39614 5.6271 51.3188 0 0 1 0.0181965 0.0210223 -0.00989345 16.9579 13.4179 -5.07646 
972 61 3 1.008 0.03 8.11712 2.16406 6.41693 8.11712 2.16406 55.5993 0 0 1 0.00634415 -0.0224831 -0.00777443 -2.06864 25.3384 7.19422 
7927 496 3 1.008 0.03 6.53298 7.76521 6.32731 6.53298 7.76521 55.5097 0 0 1 -0.0196895 -0.0486608 0.00491635 -14.5887 17.2195 -6.34817 
7933 496 3 1.008 0.03 4.5431 6.73113 6.86503 4.5431 6.73113 56.0474 0 0 1 0.00910788 0.0185665 -0.00944047 -13.0206 1.31205 8.12744 
7929 496 3 1.008 0.03 8.48385 7.85838 4.96162 8.48385 7.85838 54.144 0 0 1 -0.00719915 0.0174185 0.0193953 -11.0035 4.31334 -0.230161 
5851 366 3 1.008 0.03 1.68724 7.44038 5.06264 1.68724 7.44038 -44.1197 0 0 -1 -0.0071702 -0.00646084 -0.0265516 4.77431 13.3076 -26.3724 
974 61 3 1.008 0.03 6.92922 4.63404 0.67965 6.92922 4.63404 49.862 0 0 1 0.0121173 -0.0295027 0.00916608 -2.23453 -24.1133 -10.5115 
5856 366 3 1.008 0.03 1.18947 1.25095 6.1416 1.18947 1.25095 -43.0407 0 0 -1 -0.0123503 0.0218196 0.00676202 -16.8248 2.37191 11.9179 
5841 366 1 16 -0.4 1.10667 5.95194 6.21108 1.10667 5.95194 -42.9713 0 0 -1 -0.000369861 0.00685914 0.00024016 17.0642 -14.3698 3.96587 
5845 366 2 12.01 0.11 1.0706 7.32109 5.90723 1.0706 7.32109 -43.2751 0 0 -1 0.00727016 -0.003737 -0.00743236 -73.719 -15.8739 2.22131 
5853 366 3 1.008 0.03 1.48741 7.85362 6.67457 1.48741 7.85362 -42.5078 0 0 -1 -0.0192892 -0.00264416 0.0285646 21.3413 22.5401 34.1761 
7928 496 3 1.008 0.03 7.45893 6.6936 7.14329 7.45893 6.6936 56.3256 0 0 1 0.0307086 0.0213286 0.0329911 16.7279 -5.80643 32.9616 
8555 535 3 1.008 0.03 2.03678 0.640367 2.76736 51.2191 99.0051 101.132 1 2 2 0.0290777 -0.00713419 -0.00469525 0.916547 -10.1574 -1.80052 
4682 293 3 1.008 0.03 11.9889 2.90194 0.460571 -37.1934 52.0843 49.6429 -1 1 1 0.00401732 0.00232856 0.0108538 -8.81668 5.18129 -0.808012 
4680 293 3 1.008 0.03 10.5382 0.926598 1.35634 -38.6441 50.1089 50.5387 -1 1 1 -0.0129656 -0.01204 -0.0121548 -0.0253622 2.66913 3.3457 
968 61 3 1.008 0.03 8.90919 2.16486 4.02214 8.90919 2.16486 53.2045 0 0 1 0.015806 -0.00233457 -0.0170905 -22.3093 18.734 15.7421 
7308 457 3 1.008 0.03 12.5364 4.15493 4.1963 12.5364 102.52 4.1963 0 2 0 0.0297574 -0.0260035 0.0126686 -6.70863 6.32748 4.98578 
7934 496 3 1.008 0.03 8.73945 7.36079 2.64481 8.73945 7.36079 51.8272 0 0 1 -0.00561723 -0.0121798 -0.0147322 2.19397 5.96993 -10.3959 
967 61 3 1.008 0.03 9.04884 3.83295 3.64246 9.04884 3.83295 52.8248 0 0 1 0.0360502 -0.0139819 0.00336351 24.97 16.6653 1.93405 
7926 496 2 12.01 0.11 8.71745 6.32482 2.92063 8.71745 6.32482 52.103 0 0 1 0.00382187 0.00280831 -0.00222506 -33.3152 -17.6671 47.0384 
7930 496 3 1.008 0.03 9.02551 6.3954 5.64952 9.02551 6.3954 54.8319 0 0 1 -0.00652246 -0.0024979 0.00683386 -29.2296 5.67965 -19.3249 
7935 496 3 1.008 0.03 9.66552 6.06903 3.40776 9.66552 6.06903 52.5901 0 0 1 0.00743873 -0.0141538 0.0196319 2.75636 -3.65186 -13.7325 
8103 507 3 1.008 0.03 14.4622 6.40363 1.77647 63.6446 6.40363 100.141 1 0 2 -0.0135003 -0.0263734 -0.0162665 -12.0172 -24.6906 15.5813 
4674 293 1 16 -0.4 10.0818 3.57054 0.89841 -39.1005 52.7529 50.0808 -1 1 1 0.000957222 -0.00361031 -0.0006361 -28.4379 -32.9632 14.7352 
4673 293 1 16 -0.4 11.0416 1.64235 3.24672 -38.1408 50.8247 52.4291 -1 1 1 0.00621031 0.00374176 0.00430945 0.497566 12.545 -1.43658 
8100 507 2 12.01 0.14 16.1645 7.24883 0.962907 65.3469 7.24883 99.3276 1 0 2 -0.002738 -0.00180229 -0.00632725 29.5549 -22.9945 1.47581 
4675 293 2 12.01 0.14 11.2951 1.5383 1.85716 -37.8872 50.7207 51.0395 -1 1 1 -0.0047416 0.00640883 -0.00318002 0.826435 -36.0037 -0.687299 
7297 457 1 16 -0.4 12.2395 6.15706 4.83481 12.2395 104.522 4.83481 0 2 0 -0.0050735 0.00219291 0.000941573 0.802935 22.1475 -5.70264 
4681 293 3 1.008 0.03 11.7686 3.59101 2.03033 -37.4138 52.7734 51.2127 -1 1 1 -0.0236476 -0.00118627 -0.00644792 -7.39782 -5.4099 -11.5661 
4679 293 3 1.008 0.03 12.2704 0.9725 1.69365 -36.912 50.1548 50.876 -1 1 1 -0.010353 -0.00783239 0.000643576 -24.4711 23.3499 4.73129 
7303 457 3 1.008 0.03 13.6555 7.18645 5.69741 13.6555 105.551 5.69741 0 2 0 -0.00671746 -0.023988 0.0172596 8.84216 8.35937 15.0978 
7299 457 2 12.01 0.14 13.0133 7.38488 4.86707 13.0133 105.75 4.86707 0 2 0 -0.00973882 0.00040532 0.00619613 31.222 -24.6223 -35.9253 
7304 457 3 1.008 0.03 13.7429 7.4622 3.98968 13.7429 105.827 3.98968 0 2 0 -0.0297383 -5.12852e-05 -0.0111337 -26.0591 2.33326 24.4654 
7309 457 3 1.008 0.03 13.2358 5.39113 3.26992 13.2358 103.756 3.26992 0 2 0 -0.0125256 0.00849557 -0.0146743 9.15197 4.16026 -24.0508 
9646 604 6 16 -0.53 15.1893 0.972835 2.75698 15.1893 50.1552 2.75698 0 1 0 0.00525022 -0.00323834 -0.00121028 14.5516 -4.90787 -22.47 
7301 457 2 12.01 0.11 13.0251 5.13157 4.26539 13.0251 103.496 4.26539 0 2 0 0.00123242 -0.000279699 -0.00200936 -44.7703 -15.5874 -6.73262 
144 9 3 1.008 0.03 14.2476 0.482075 5.01799 -34.9348 98.8468 -44.1644 -1 2 -1 0.014128 -0.0153886 0.000571363 -7.95084 28.9727 4.90364 
1835 115 3 1.008 0.03 16.2374 7.03301 5.19291 -32.9449 7.03301 -142.354 -1 0 -3 -0.00147038 0.00217652 0.0111585 -7.92627 0.10195 -10.0786 
973 61 3 1.008 0.03 9.30297 3.37286 6.15003 9.30297 3.37286 55.3324 0 0 1 0.0139319 0.0303067 -0.0355274 38.6707 14.5966 7.91469 
9649 604 8 19 -0.16 14.735 3.77739 1.18903 14.735 52.9597 1.18903 0 1 0 -0.00466997 0.00270569 0.00534437 -0.831996 -2.19121 12.3503 
7307 457 3 1.008 0.03 13.8897 4.94654 4.77576 13.8897 103.311 4.77576 0 2 0 0.0282775 0.014758 0.0146194 41.9032 -2.76748 23.7535 
1837 115 3 1.008 0.03 16.4556 6.8198 6.92799 -32.7267 6.8198 -140.619 -1 0 -3 0.00266218 0.0234824 -0.00882957 3.88203 14.7193 -18.0417 
4683 293 3 1.008 0.03 10.6927 0.54277 4.99369 -38.4897 49.7251 54.176 -1 1 1 0.013087 -0.0109815 -0.00444558 -0.0870896 2.76315 -20.596 
9650 604 8 19 -0.16 16.5858 3.56095 2.45745 16.5858 52.7433 2.45745 0 1 0 0.00146735 0.000162337 -0.00494726 -47.004 -17.8718 -31.4082 
9648 604 7 12.01 0.35 15.8383 3.0668 1.39867 15.8383 52.2491 1.39867 0 1 0 -0.00598749 0.00668962 0.00829531 84.925 5.74064 -2.32284 
8101 507 2 12.01 0.11 12.6592 7.93871 0.972553 61.8416 7.93871 99.3373 1 0 2 0.00448059 -0.00325405 -0.00178864 -43.8217 2.11473 35.5312 
8099 507 2 12.01 0.14 14.6677 6.93966 0.900781 63.85 6.93966 99.2655 1 0 2 0.000879799 0.00359635 0.00154893 46.5404 39.3599 21.0627 
8097 507 1 16 -0.4 14.0221 8.17978 0.950163 63.2045 8.17978 99.3149 1 0 2 -0.000856711 -0.00279997 -0.00129337 5.77097 3.20583 2.9355 
8109 507 3 1.008 0.03 12.2785 7.41748 1.92046 61.4608 7.41748 100.285 1 0 2 0.00891122 -0.0154196 -0.0103889 18.5854 13.5302 -31.5781 
4688 293 3 1.008 0.03 10.5898 5.57513 0.655655 -38.5925 54.7575 49.838 -1 1 1 0.00323118 -0.000659284 -0.00489183 10.687 -4.50989 2.94259 
7305 457 3 1.008 0.03 11.3341 8.26926 5.57548 11.3341 106.634 5.57548 0 2 0 0.0075868 -0.00197033 -0.0145159 10.2697 19.4823 7.41934 
9645 604 5 32.06 1.02 15.6503 1.22804 1.39885 15.6503 50.4104 1.39885 0 1 0 0.00361896 0.00126914 -1.04155e-05 -9.62397 4.23182 15.3659 
4676 293 2 12.01 0.14 11.2652 2.93956 1.28456 -37.9171 52.1219 50.4669 -1 1 1 -0.0027586 0.00248259 0.00508916 69.2341 27.0689 6.27008 
138 9 3 1.008 0.03 12.7514 0.448603 7.20073 -36.431 98.8133 -41.9816 -1 2 -1 0.0244863 0.00353866 -0.00902992 0.638004 29.6247 0.871826 
8106 507 3 1.008 0.03 16.3943 8.16297 0.465445 65.5767 8.16297 98.8301 1 0 2 -0.0310902 0.0332757 0.00662219 1.9699 21.4737 6.25359 
4677 293 2 12.01 0.11 10.9577 0.416385 3.91398 -38.2246 49.5987 53.0963 -1 1 1 0.00298584 0.00662572 0.0066521 25.2517 -26.1533 34.0866 
9640 604 6 16 -0.53 18.2757 0.622046 3.13153 18.2757 49.8044 3.13153 0 1 0 0.00294398 0.00355649 0.000955392 1.73919 12.0838 26.4593 
8098 507 1 16 -0.4 16.8271 6.94496 2.21277 66.0094 6.94496 100.577 1 0 2 0.00267177 -0.000158479 0.00378 -12.6699 17.759 -0.491216 
1102 69 3 1.008 0.03 20.626 4.6932 1.17858 69.8084 4.6932 -97.1861 1 0 -2 -0.0205972 -0.011761 0.0111181 -4.72377 -0.606222 -7.61382 
8102 507 2 12.01 0.11 18.1765 7.41871 2.29739 67.3589 7.41871 100.662 1 0 2 0.00135345 -0.000277416 -0.00752891 -36.5368 -11.8224 -0.00158844 
8111 507 3 1.008 0.03 18.4798 7.21204 3.34754 67.6621 7.21204 101.712 1 0 2 -0.00549561 -0.00375835 0.00450025 6.72022 8.50606 -16.6263 
1836 115 3 1.008 0.03 17.4443 6.01451 5.89431 -31.738 6.01451 -141.653 -1 0 -3 -0.00668964 -0.00295496 -0.0124266 22.2199 -5.12476 -12.0981 
1829 115 2 12.01 0.11 16.988 6.97729 5.95553 -32.1943 6.97729 -141.592 -1 0 -3 -0.00332373 -0.00820201 0.00201855 -22.7208 0.64596 29.8093 
8112 507 3 1.008 0.03 18.7394 6.87269 1.54749 67.9217 6.87269 99.9122 1 0 2 0.0216566 0.0164956 -0.0202214 10.1158 -1.04328 3.49287 
8110 507 3 1.008 0.03 18.1049 8.47229 2.01797 67.2872 8.47229 100.383 1 0 2 0.00101291 -0.00320574 -0.0161062 14.309 -0.0505593 7.61294 
314 20 3 1.008 0.03 18.6806 1.62731 6.01253 -30.5018 -145.92 104.377 -1 -3 2 0.00851539 -0.0362621 -0.020971 12.2669 2.17365 4.63256 
1827 115 2 12.01 0.14 18.6733 8.21713 7.07459 -30.5091 8.21713 -140.472 -1 0 -3 0.00217637 0.00362875 0.00785702 -37.5544 -45.3622 -11.5114 
320 20 3 1.008 0.03 22.372 2.59961 5.44676 -26.8103 -144.947 103.811 -1 -3 2 -0.00359495 -0.00545021 -0.0207784 -4.24334 -9.51768 8.90109 
310 20 2 12.01 0.11 21.4133 2.06484 5.51994 -27.7691 -145.482 103.885 -1 -3 2 0.00457527 -0.00403851 -0.00471084 -0.404914 -12.5687 -21.131 
319 20 3 1.008 0.03 21.1699 2.04609 4.41942 -28.0124 -145.501 102.784 -1 -3 2 -0.0113563 0.00492922 -0.0031967 -5.40601 -10.3326 27.002 
5273 330 3 1.008 0.03 23.961 6.96141 4.25971 73.1434 -42.2209 -44.9226 1 -1 -1 -0.00431848 -0.0215608 0.0251037 3.96496 -4.63909 0.902588 
4982 312 2 12.01 0.11 23.2748 4.42992 2.3034 23.2748 -44.7524 51.4857 0 -1 1 0.00602402 0.00453611 0.00487278 21.4529 23.1797 -37.9916 
4978 312 1 16 -0.4 24.3149 5.37942 2.46711 24.3149 -43.8029 51.6495 0 -1 1 0.00514377 0.0036027 -0.00238691 3.44627 3.82803 -2.65207 
5268 330 2 12.01 0.14 23.4206 7.5868 4.95764 72.603 -41.5955 -44.2247 1 -1 -1 0.00488561 0.00376858 0.00231202 6.20105 -16.0918 2.2934 
4990 312 3 1.008 0.03 23.6503 3.46229 2.26036 23.6503 -45.7201 51.4427 0 -1 1 0.0222843 -0.0106194 0.00860662 14.9045 -32.3012 1.59848 
4991 312 3 1.008 0.03 22.6269 4.47686 3.09916 22.6269 -44.7055 52.2815 0 -1 1 0.0159564 0.00668803 0.0127134 -29.9522 3.08525 30.8861 
2559 160 3 1.008 0.03 21.9477 7.13455 1.87837 21.9477 56.3169 -47.304 0 1 -1 0.00433152 -0.00830369 0.00576875 -8.44967 -15.1638 -1.58043 
2550 160 2 12.01 0.11 21.865 8.04156 1.31075 21.865 57.2239 -47.8716 0 1 -1 -0.00180094 0.00309079 -0.00427728 33.9672 25.318 -57.6279 
2560 160 3 1.008 0.03 22.7756 8.20478 0.638355 22.7756 57.3871 -48.544 0 1 -1 -0.0126659 0.00439302 0.0212098 -27.6435 -18.5553 18.7215 
4992 312 3 1.008 0.03 22.7564 4.5775 1.35244 22.7564 -44.6048 50.5348 0 -1 1 0.000222607 -0.0145515 0.00482567 -1.05464 3.29781 5.093 
5274 330 3 1.008 0.03 22.6942 8.03509 4.32467 71.8766 -41.1473 -44.8577 1 -1 -1 0.00301816 0.00257103 0.00918965 -10.634 21.8813 -4.76049 
10138 637 8 19 -0.16 24.0398 0.741235 7.24352 -25.1425 49.9236 7.24352 -1 1 0 0.00450187 0.00426336 -0.00482445 14.8847 -30.8748 13.4925 
5271 330 3 1.008 0.03 21.9288 6.17314 5.38603 71.1112 -43.0092 -43.7963 1 -1 -1 0.00296602 0.0211706 0.000957343 -0.223382 -1.83432 13.2475 
5267 330 2 12.01 0.14 22.6845 6.71869 5.97106 71.8668 -42.4637 -43.2113 1 -1 -1 -0.0011752 -0.00462135 -0.00444959 13.4481 11.8197 -5.07177 
5266 330 1 16 -0.4 24.3551 8.4372 5.60471 73.5375 -40.7451 -43.5776 1 -1 -1 -0.00271996 -0.000778965 -0.00420888 -5.29195 -12.9408 16.4478 
9637 604 4 14.01 -0.66 17.0828 0.709015 0.919299 17.0828 49.8914 0.919299 0 1 0 0.00289052 0.00566908 -0.00440787 -39.153 29.9853 0.98958 
1104 69 3 1.008 0.03 20.1501 2.99051 0.820456 69.3325 2.99051 -97.5442 1 0 -2 -0.0355106 0.00739219 0.00559381 4.748 27.7111 -7.76987 
312 20 3 1.008 0.03 18.0469 3.88191 6.47744 -31.1354 -143.665 104.842 -1 -3 2 -0.0100391 -0.0239337 0.00458647 18.4631 -21.5766 30.5143 
2546 160 1 16 -0.4 20.6843 8.36781 0.561213 20.6843 57.5502 -48.6211 0 1 -1 0.00056192 -0.00416061 0.00154625 0.423351 6.31789 2.90688 
5276 330 3 1.008 0.03 22.5369 4.25219 6.71647 71.7193 -44.9302 -42.4659 1 -1 -1 -0.00638299 0.00490919 -0.00639593 9.30148 14.2455 21.361 
1832 115 3 1.008 0.03 19.4913 7.49352 7.025 -29.6911 7.49352 -140.522 -1 0 -3 0.00953031 0.0039252 -0.0217051 -8.89295 -7.8779 -5.80063 
1825 115 1 16 -0.4 17.7887 8.16331 5.91534 -31.3936 8.16331 -141.632 -1 0 -3 0.00453002 -0.000322881 -0.00183079 22.0243 -2.07856 21.6285 
318 20 3 1.008 0.03 21.5569 1.03635 5.96934 -27.6254 -146.511 104.334 -1 -3 2 0.010242 0.0206109 -0.0100664 -1.28316 24.2905 -14.4355 
1103 69 3 1.008 0.03 18.9998 4.21004 0.617504 68.1822 4.21004 -97.7472 1 0 -2 -0.0140545 -0.0187697 -0.0196256 -12.6827 11.4736 1.03369 
5272 330 3 1.008 0.03 22.2724 7.33713 6.78102 71.4548 -41.8452 -42.4013 1 -1 -1 -0.00283864 -0.00532516 -0.0149487 -6.56492 -4.76664 -7.3075 
5265 330 1 16 -0.4 23.7177 5.91485 6.49302 72.9001 -43.2675 -42.6893 1 -1 -1 0.00388184 0.00130291 -0.00353851 -0.241611 -11.8823 4.92167 
306 20 1 16 -0.4 20.4676 2.84241 6.25149 -28.7147 -144.705 104.616 -1 -3 2 0.00238937 0.00191862 -0.00250619 -35.2008 -23.5712 17.0101 
308 20 2 12.01 0.14 19.2704 2.11978 6.80924 -29.9119 -145.427 105.174 -1 -3 2 0.00354335 0.0017972 -0.00117273 40.3888 6.93825 -55.6286 
1094 69 2 12.01 0.11 20.0521 4.065 0.481909 69.2344 4.065 -97.8828 1 0 -2 0.00584683 0.00278957 -0.00831374 1.99667 -60.0012 31.8409 
307 20 2 12.01 0.14 18.3682 3.19913 7.34433 -30.8141 -144.348 105.709 -1 -3 2 -0.00288366 -0.00563753 -0.00622804 -0.606042 38.4107 -18.4768 
5269 330 2 12.01 0.11 23.2237 4.88868 7.32966 72.406 -44.2937 -41.8527 1 -1 -1 0.0013711 -0.000353059 -0.00479974 -9.81187 1.17359 -10.1422 
4985 312 3 1.008 0.03 24.7201 5.32872 0.435587 24.7201 -43.8536 49.6179 0 -1 1 -0.00682822 0.00270057 0.00595449 -5.73323 13.3586 -13.1121 
8325 521 2 12.01 0.11 0.927349 11.1004 4.90216 99.292 60.2827 54.0845 2 1 1 -0.00508435 -0.00320857 -0.000143326 -3.45123 -23.8341 -2.09514 
9620 602 8 19 -0.16 8.41038 11.8069 6.61559 57.5927 60.9893 55.7979 1 1 1 0.00103231 -0.00541638 -0.000913226 2.57137 43.0202 -47.8471 
9857 618 6 16 -0.53 0.712198 16.5401 0.866619 49.8945 65.7225 0.866619 1 1 0 0.00600299 0.00339616 -0.00775791 -3.36323 11.0878 0.717529 
3785 237 3 1.008 0.03 5.07567 14.3952 1.08903 5.07567 63.5775 1.08903 0 1 0 0.0240429 0.0055057 -0.0115279 9.40411 -3.18701 -11.398 
10118 636 5 32.06 1.02 6.54932 9.48228 1.43098 6.54932 9.48228 50.6133 0 0 1 -0.0016886 0.000779607 -0.00197253 15.0892 -34.6643 27.9403 
3786 237 3 1.008 0.03 5.41573 14.1403 2.78456 5.41573 63.3227 2.78456 0 1 0 0.00622921 0.00539774 0.00853065 -13.0143 12.5565 -12.721 
3790 237 3 1.008 0.03 4.10615 12.425 1.22564 4.10615 61.6073 1.22564 0 1 0 0.0152712 -0.0325665 -0.0204181 2.58162 -11.8592 -24.2811 
10130 636 8 19 -0.16 2.71323 8.9408 1.9691 2.71323 8.9408 51.1514 0 0 1 -0.00345194 0.00271992 -0.00386332 9.46793 -26.8567 -19.1646 
10126 636 6 16 -0.53 4.80338 8.6548 4.05817 4.80338 8.6548 53.2405 0 0 1 0.00249551 0.00346847 0.00170703 -12.9315 35.4797 28.0014 
8327 521 3 1.008 0.03 2.35271 12.4464 6.55416 100.717 61.6288 55.7365 2 1 1 -0.0170494 0.0151741 -0.0155151 1.82139 -9.64563 -0.465303 
3650 229 1 16 -0.4 1.52089 15.6331 3.4048 1.52089 64.8155 3.4048 0 1 0 -0.0061479 -0.000845254 -0.000203896 -14.9889 -17.9191 4.92945 
8323 521 2 12.01 0.14 2.93675 11.7286 5.95811 101.301 60.9109 55.1405 2 1 1 -0.00232801 -0.00323707 0.00418278 -35.5946 -0.31014 -40.7349 
3791 237 3 1.008 0.03 3.84295 12.0611 2.86946 3.84295 61.2435 2.86946 0 1 0 0.00738992 -0.028639 -0.00678714 -9.78258 19.8927 -11.4652 
3784 237 3 1.008 0.03 4.64515 16.4187 3.28957 4.64515 65.601 3.28957 0 1 0 0.00719456 0.0389306 0.0038431 8.43701 -5.14553 -20.7704 
8329 521 3 1.008 0.03 4.79825 12.0739 6.87956 103.163 61.2562 56.0619 2 1 1 0.00501748 0.0199135 0.0183294 -2.61798 3.0335 -4.5567 
8324 521 2 12.01 0.14 4.35118 12.244 5.88916 102.716 61.4263 55.0715 2 1 1 0.0125503 0.000806517 0.00782016 17.5371 15.8004 -5.07737 
8330 521 3 1.008 0.03 4.9989 11.7018 5.19104 103.364 60.8842 54.3734 2 1 1 0.00367696 0.0084119 0.0216939 -6.49875 0.55623 -1.43061 
8335 521 3 1.008 0.03 6.08251 13.8943 6.76552 104.447 63.0766 55.9479 2 1 1 0.0151081 -0.0158443 0.00859296 1.66586 14.2752 1.35286 
8326 521 2 12.01 0.11 5.61988 14.2614 5.84286 103.985 63.4437 55.0252 2 1 1 0.00184845 -0.000600256 0.00911357 -45.5056 17.6905 -14.3018 
8334 521 3 1.008 0.03 5.51933 15.3677 5.66826 103.884 64.55 54.8506 2 1 1 0.0117214 0.0120372 -0.00166084 3.74105 -19.7069 23.2589 
3792 237 3 1.008 0.03 2.37228 12.3399 1.8223 2.37228 61.5222 1.8223 0 1 0 0.00749883 -0.0286745 -0.0339479 25.5896 -1.72009 -0.427092 
8336 521 3 1.008 0.03 6.23754 14.0461 5.02796 104.602 63.2284 54.2103 2 1 1 -0.00746317 -0.00484042 0.00195616 22.0791 -17.451 -18.1026 
8322 521 1 16 -0.4 4.32103 13.6581 5.60043 102.686 62.8405 54.7828 2 1 1 0.00194966 -0.00940806 -0.00252294 22.5098 -6.70269 11.1247 
4482 281 1 16 -0.4 8.52415 16.7933 4.54313 106.889 -32.389 152.09 2 -1 3 0.0151502 -0.0104586 -0.00367805 20.1375 -13.9237 -26.6142 
8328 521 3 1.008 0.03 2.97145 10.7689 6.43132 101.336 59.9513 55.6137 2 1 1 -0.012285 0.0109743 -0.0184589 -2.27239 -9.62642 12.9001 
3778 237 1 16 -0.4 3.41257 14.0662 2.15746 3.41257 63.2485 2.15746 0 1 0 0.000504421 0.00306775 0.00132866 -13.4302 17.4203 0.545201 
8321 521 1 16 -0.4 2.25121 11.4916 4.66008 100.616 60.6739 53.8424 2 1 1 -0.00393261 -0.00363871 -0.00504028 29.8548 29.4516 45.875 
3782 237 2 12.01 0.11 3.43464 12.6574 2.00981 3.43464 61.8397 2.00981 0 1 0 0.0104063 0.00674609 -0.00380195 -18.0287 -15.9694 29.5815 
10466 677 9 24.305 2 1.94389 15.0937 1.45191 1.94389 64.276 1.45191 0 1 0 0.00524126 0.000669518 -0.0030866 3.73198 16.4912 16.5839 
3658 229 3 1.008 0.03 0.967758 14.0994 4.82652 0.967758 63.2817 4.82652 0 1 0 0.0114725 -0.00486642 -0.0173772 1.25094 -2.16748 -18.5632 
3654 229 2 12.01 0.11 2.19984 16.4803 4.35906 2.19984 65.6627 4.35906 0 1 0 0.00379925 -0.00401307 0.000557474 -9.96462 -3.28071 -54.6422 
3663 229 3 1.008 0.03 2.87586 15.9251 4.90293 2.87586 65.1075 4.90293 0 1 0 0.015637 -0.0191732 0.00406885 25.173 -19.5951 27.2743 
10120 636 6 16 -0.53 7.97921 9.25533 1.23683 7.97921 9.25533 50.4192 0 0 1 -0.00333635 -0.0106201 0.00209476 -23.2311 9.32999 -10.1858 
3780 237 2 12.01 0.14 4.71572 14.64 2.06167 4.71572 63.8223 2.06167 0 1 0 0.00179703 -0.00297557 -0.00270204 18.4067 -37.4977 26.0438 
3777 237 1 16 -0.4 3.51895 16.5633 1.54772 3.51895 65.7457 1.54772 0 1 0 -0.00482391 0.000896774 0.000354106 -4.2791 -20.812 -3.44704 
9619 602 8 19 -0.16 7.05019 10.2497 7.17781 56.2325 59.4321 56.3602 1 1 1 0.00267883 -1.61191e-05 -0.00387919 29.4805 18.5401 -10.0477 
10119 636 6 16 -0.53 6.16945 10.6059 2.24101 6.16945 10.6059 51.4234 0 0 1 -0.00332495 0.00812768 -0.000997926 -0.812251 9.28876 0.965292 
3779 237 2 12.01 0.14 4.72573 16.1291 2.20972 4.72573 65.3115 2.20972 0 1 0 -0.00602967 -0.00626793 0.00132868 28.6079 35.7286 1.17691 
8331 521 3 1.008 0.03 0.960099 10.058 5.28037 99.3248 59.2403 54.4627 2 1 1 0.0440761 -0.00841594 0.0309227 -8.18104 12.6253 -4.80801 
8333 521 3 1.008 0.03 0.481971 11.14 3.93771 98.8467 60.3224 53.1201 2 1 1 -0.0140601 -0.0110361 0.00843948 -9.14617 -9.90973 -16.2606 
3652 229 2 12.01 0.14 0.509748 14.7862 4.08919 0.509748 63.9686 4.08919 0 1 0 -0.00434141 -0.00170869 0.00807044 34.7243 27.8621 20.1261 
3783 237 3 1.008 0.03 5.74462 16.5259 1.77514 5.74462 65.7083 1.77514 0 1 0 0.0198512 -0.00276869 -0.0117793 -53.005 -13.2864 19.5132 
9618 602 7 12.01 0.35 8.23039 10.8751 7.43212 57.4127 60.0575 56.6145 1 1 1 0.000965175 -0.00186634 0.00435249 -43.6996 -60.3506 59.9906 
708 45 2 12.01 0.14 9.96953 13.0767 0.557753 9.96953 -85.288 0.557753 0 -2 0 0.00469523 0.00317867 -0.00421843 15.6207 19.175 -35.0587 
4493 281 3 1.008 0.03 10.6175 13.0383 5.20538 108.982 -36.144 152.752 2 -1 3 0.0298376 -0.0260932 0.0213896 -7.93987 43.7326 35.9728 
4951 310 3 1.008 0.03 15.3158 12.1362 1.10388 64.4982 12.1362 1.10388 1 0 0 -0.00637367 -0.00954581 0.0134605 1.05023 26.3551 7.79699 
9621 602 8 19 -0.16 9.17878 9.99337 7.24864 58.3611 59.1757 56.431 1 1 1 -0.00124559 -0.0045758 0.0024032 9.52364 -9.88925 -8.35339 
10153 638 8 19 -0.16 13.2909 13.4405 6.38786 13.2909 13.4405 55.5702 0 0 1 0.00442165 0.00101875 0.00154139 0.835442 -2.27734 9.12894 
4488 281 3 1.008 0.03 9.96524 14.7047 3.44119 108.33 -34.4777 150.988 2 -1 3 -0.0125786 0.0126684 -0.0108153 -4.72305 -9.58984 21.1342 
4484 281 2 12.01 0.14 9.84311 16.7928 3.97547 108.208 -32.3895 151.523 2 -1 3 0.0024799 0.000525282 0.00105424 43.589 -19.9529 -6.10458 
714 45 3 1.008 0.03 10.2136 12.1793 1.0743 10.2136 -86.1854 1.0743 0 -2 0 -0.0210806 -0.0244509 -0.0122527 -13.0256 -7.44204 31.3599 
4483 281 2 12.01 0.14 10.5818 15.3921 4.02093 108.947 -33.7902 151.568 2 -1 3 0.00723573 0.00373327 -0.0106182 -7.99331 18.9251 12.2589 
4487 281 3 1.008 0.03 11.5035 15.3746 3.40571 109.868 -33.8077 150.953 2 -1 3 -0.00999706 -0.000975699 -0.0387087 -6.65648 8.33159 12.0156 
4481 281 1 16 -0.4 10.9366 15.1069 5.42217 109.301 -34.0755 152.969 2 -1 3 0.00111685 -0.00545646 0.000105662 -2.16105 17.3452 -37.4177 
4952 310 3 1.008 0.03 14.8249 13.7563 0.819549 64.0073 13.7563 0.819549 1 0 0 -0.00453516 -0.00656994 -0.00482613 -20.4895 20.8039 -8.47392 
4485 281 2 12.01 0.11 10.4009 13.9324 5.93468 108.766 -35.2499 153.482 2 -1 3 -0.00430407 0.00962927 0.000173219 -62.8532 -56.6314 -63.1116 
7312 457 3 1.008 0.03 11.8204 11.1258 4.09212 11.8204 109.49 4.09212 0 2 0 -0.00308233 -0.0160806 0.00220241 11.6744 11.8923 0.762517 
7300 457 2 12.01 0.14 12.2216 8.67025 5.04754 12.2216 107.035 5.04754 0 2 0 -0.00447251 0.0032577 0.00211284 -26.7467 -43.172 13.5563 
7306 457 3 1.008 0.03 12.7793 9.40101 5.6465 12.7793 107.766 5.6465 0 2 0 0.000309192 0.0173501 -0.0249373 -4.81691 3.35325 -8.46876 
10149 638 6 16 -0.53 16.0038 13.3118 5.60887 16.0038 13.3118 54.7912 0 0 1 0.00324589 0.00131549 -0.00657147 9.31453 18.4985 -44.5029 
7302 457 2 12.01 0.11 11.1279 10.3445 3.88621 11.1279 108.709 3.88621 0 2 0 0.0017589 -0.00230093 -0.00080075 -26.4257 -30.7664 -14.3542 
7298 457 1 16 -0.4 11.6903 9.03835 3.80443 11.6903 107.403 3.80443 0 2 0 -0.00351755 -0.00301931 0.00773838 9.30253 25.5811 -1.57915 
4956 310 3 1.008 0.03 13.2349 13.2418 2.30331 62.4173 13.2418 2.30331 1 0 0 -0.00310611 0.0246597 -0.00648198 2.67972 -8.59226 0.164679 
4957 310 3 1.008 0.03 13.6885 12.3641 3.8476 62.8708 12.3641 3.8476 1 0 0 -0.00507966 0.00628968 0.0391844 4.21764 1.42816 -10.4465 
4945 310 1 16 -0.4 15.3832 13.2635 2.80455 64.5656 13.2635 2.80455 1 0 0 -0.0014289 -0.00322222 0.00103275 -22.4032 3.43952 7.89236 
4949 310 2 12.01 0.11 13.9433 13.1661 3.13631 63.1256 13.1661 3.13631 1 0 0 0.00566985 -0.011179 0.00806406 21.2569 44.2326 24.2805 
4947 310 2 12.01 0.14 15.517 13.2129 1.38703 64.6994 13.2129 1.38703 1 0 0 0.00222666 0.00589497 -0.00016659 23.1486 -52.8796 -16.1763 
7806 488 3 1.008 0.03 15.563 10.6649 3.35144 64.7454 10.6649 3.35144 1 0 0 -0.012519 0.00886265 -0.000434439 24.1539 -0.723919 -6.23478 
7798 488 2 12.01 0.11 16.673 10.5262 3.22166 65.8553 10.5262 3.22166 1 0 0 0.00426359 -0.00718425 0.00472125 5.05525 -35.7495 9.48934 
4955 310 3 1.008 0.03 13.7327 14.1234 3.71124 62.9151 14.1234 3.71124 1 0 0 -0.0169728 -0.0135603 0.00355568 4.11039 -27.2237 -14.0595 
7311 457 3 1.008 0.03 10.3181 10.3636 4.60122 10.3181 108.728 4.60122 0 2 0 0.0127979 -0.00474351 -0.00691048 -0.55656 1.57829 10.536 
7310 457 3 1.008 0.03 10.5912 10.4882 2.94956 10.5912 108.853 2.94956 0 2 0 0.0122977 -0.0138722 0.031606 7.24518 8.77707 -3.69705 
706 45 1 16 -0.4 10.3939 14.3089 1.18002 10.3939 -84.0558 1.18002 0 -2 0 -0.000833167 0.00254248 -0.00283551 2.00682 -9.40156 -25.2998 
10152 638 8 19 -0.16 13.4678 11.3432 6.82997 13.4678 11.3432 56.0123 0 0 1 -0.00449149 0.00088978 0.00301185 6.38385 6.24746 -10.244 
10148 638 5 32.06 1.02 15.8016 12.7078 6.87829 15.8016 12.7078 56.0606 0 0 1 -0.001681 -0.000923031 -0.000369574 -1.74289 -46.4557 23.076 