ITEM: TIMESTEP
4450000
ITEM: NUMBER OF ATOMS
10479
ITEM: BOX BOUNDS pp pp pp
4.0882558190751794e-01 4.9591174418091420e+01
4.0882558190751794e-01 4.9591174418091420e+01
4.0882558190751794e-01 4.9591174418091420e+01
ITEM: ATOMS id mol type mass q x y z xu yu zu ix iy iz vx vy vz fx fy fz 
3122 196 1 16 -0.4 1.05192 4.33437 1.28223 50.2343 -44.848 50.4646 1 -1 1 0.00143163 0.00672147 -0.00371322 0.441435 -3.66897 2.2782 
5956 373 2 12.01 0.14 6.26721 3.08655 2.05166 -42.9151 101.451 2.05166 -1 2 0 -0.00479435 0.00606657 0.00124359 37.0384 17.0567 -54.6916 
5962 373 3 1.008 0.03 6.68405 2.59081 1.16488 -42.4983 100.956 1.16488 -1 2 0 0.0043808 -0.00182138 0.0202059 3.56484 -5.8647 11.3353 
5958 373 2 12.01 0.11 5.18314 1.12516 2.74436 -43.9992 99.4899 2.74436 -1 2 0 -0.00166878 -0.00233946 -0.00564396 38.4313 -18.6647 36.119 
8265 517 3 1.008 0.03 2.86304 3.52895 6.22865 101.228 3.52895 6.22865 2 0 0 0.0126144 0.0131409 -0.0260317 5.66716 -43.0381 -16.7692 
2931 184 2 12.01 0.14 7.0472 8.20229 2.15715 -42.1351 57.3846 2.15715 -1 1 0 0.000145353 0.00129709 -0.000657927 -30.7866 -57.376 -19.8786 
2929 184 1 16 -0.4 5.80682 7.67194 2.771 -43.3755 56.8543 2.771 -1 1 0 0.000905229 -0.0029752 -0.0026771 41.3296 21.0119 -8.52092 
8270 517 3 1.008 0.03 0.734018 2.78787 6.34399 99.0987 2.78787 6.34399 2 0 0 0.0101296 -0.00324037 -0.00706859 -14.1147 45.6621 16.5597 
3127 196 3 1.008 0.03 0.684603 2.61316 2.91315 49.867 -46.5692 52.0955 1 -1 1 -5.79445e-05 -0.00184631 0.0155968 10.9657 6.91329 -5.79718 
5961 373 3 1.008 0.03 5.96046 4.00988 1.5003 -43.2219 102.375 1.5003 -1 2 0 -0.00597866 0.0246479 -0.000128636 6.72821 -5.56215 25.0526 
5954 373 1 16 -0.4 5.10389 2.44696 2.37327 -44.0785 100.812 2.37327 -1 2 0 0.0032283 0.00713625 0.00197293 -38.5331 10.596 10.5743 
2932 184 2 12.01 0.14 8.14291 7.23473 2.69224 -41.0394 56.4171 2.69224 -1 1 0 0.00581434 -0.00097617 0.00143422 42.2258 25.2275 -64.5575 
2937 184 3 1.008 0.03 7.99932 7.09649 3.69367 -41.183 56.2788 3.69367 -1 1 0 0.00836746 -0.0114907 0.0143067 -7.7171 -17.0166 43.3332 
8263 517 3 1.008 0.03 5.30784 2.80725 5.99612 103.673 2.80725 5.99612 2 0 0 -0.00528246 -0.000679399 0.00229498 11.2917 6.66971 -2.47297 
7272 455 3 1.008 0.03 5.39466 6.78579 5.06863 54.577 6.78579 54.251 1 0 1 -0.0193497 -0.00771295 0.0284525 0.0791393 -4.136 0.849356 
8258 517 1 16 -0.4 2.21705 1.42319 6.14609 100.582 1.42319 6.14609 2 0 0 0.00641859 -0.00212364 -0.00203361 -6.14595 23.3919 17.7709 
3124 196 2 12.01 0.14 2.05725 3.35596 1.40412 51.2396 -45.8264 50.5865 1 -1 1 -0.00273078 -0.00354586 0.00683782 0.357185 -21.9321 -25.8345 
8266 517 3 1.008 0.03 3.25824 2.38844 4.80721 101.623 2.38844 4.80721 2 0 0 0.00562369 0.00662275 0.00786234 8.14086 12.5249 15.9956 
7271 455 3 1.008 0.03 5.05651 8.16177 6.06867 54.2389 8.16177 55.251 1 0 1 0.00530722 0.000820012 0.0148996 -13.1782 -19.8717 5.77514 
3123 196 2 12.01 0.14 1.42391 2.24525 2.19175 50.6063 -46.9371 51.3741 1 -1 1 0.00267473 0.0105727 0.00175516 -36.1542 -1.02333 -8.87472 
7267 455 2 12.01 0.14 5.44233 7.11835 6.10409 54.6247 7.11835 55.2864 1 0 1 -0.00237989 0.00626708 0.000990929 -11.9205 37.9591 -32.0436 
8260 517 2 12.01 0.14 3.19885 2.46574 5.91743 101.564 2.46574 5.91743 2 0 0 -0.00185141 -0.00494796 -0.00446387 -1.98491 19.7143 0.481212 
7265 455 1 16 -0.4 6.8011 7.24662 6.43439 55.9834 7.24662 55.6167 1 0 1 -0.00192344 -0.000473367 0.0075827 19.2419 -6.82507 -4.7331 
3128 196 3 1.008 0.03 2.07735 1.60699 2.70896 51.2597 -47.5754 51.8913 1 -1 1 0.0203903 0.00631659 0.0177552 26.149 -10.0858 11.3975 
8259 517 2 12.01 0.14 4.62025 2.25666 6.60035 102.985 2.25666 6.60035 2 0 0 -0.000920841 0.00624691 0.00412354 -41.2113 -10.8018 -27.9111 
3121 196 1 16 -0.4 0.714786 1.45126 1.26823 49.8971 -47.7311 50.4506 1 -1 1 0.00124085 0.00097053 0.00581707 -6.05949 -7.42324 -1.95557 
7268 455 2 12.01 0.14 4.64781 6.171 6.97367 53.8302 6.171 56.156 1 0 1 -0.00521367 0.00209422 -0.00197805 4.22104 13.1141 9.63053 
7273 455 3 1.008 0.03 3.75344 5.73467 6.48252 52.9358 5.73467 55.6649 1 0 1 -0.0142068 -0.0362242 -0.00849265 15.3249 2.39796 0.00169855 
3129 196 3 1.008 0.03 2.90266 3.71657 1.94342 52.085 -45.4658 51.1258 1 -1 1 0.00898409 -0.0181546 -0.00934029 12.635 9.51819 7.74488 
8264 517 3 1.008 0.03 4.92344 1.20576 6.56192 103.288 1.20576 6.56192 2 0 0 0.0065612 0.026023 0.0234776 3.61455 9.34862 -3.72135 
2939 184 3 1.008 0.03 3.77691 7.48991 2.64559 -45.4054 56.6723 2.64559 -1 1 0 -0.0106011 0.00500646 0.0276473 24.2738 -6.0585 -18.2871 
2935 184 3 1.008 0.03 7.1222 8.09567 1.03465 -42.0601 57.278 1.03465 -1 1 0 -0.00113987 -0.00474296 -0.0123008 -11.7865 4.5195 25.5109 
7274 455 3 1.008 0.03 5.42852 5.44468 7.19197 54.6109 5.44468 56.3743 1 0 1 0.00313878 0.0209137 -0.00674249 -15.6228 -9.71618 7.87419 
2938 184 3 1.008 0.03 8.21544 6.24055 2.1112 -40.9669 55.4229 2.1112 -1 1 0 -0.021832 -0.0145577 -0.00684405 -5.89174 36.4672 24.0758 
5960 373 3 1.008 0.03 8.07926 2.43127 3.39816 -41.1031 100.796 3.39816 -1 2 0 0.0109495 0.00324943 0.0105415 -29.1702 14.9206 -12.4202 
5955 373 2 12.01 0.14 7.38254 3.28885 3.12909 -41.7998 101.654 3.12909 -1 2 0 5.21231e-05 -0.0050932 0.0119363 1.10935 -13.8113 5.19542 
5959 373 3 1.008 0.03 8.04248 4.05336 2.74634 -41.1399 102.418 2.74634 -1 2 0 -0.0223979 -0.00972724 -0.0121863 5.4123 3.57688 -1.79763 
5953 373 1 16 -0.4 6.73423 3.80022 4.27181 -42.4481 102.165 4.27181 -1 2 0 -0.00285661 0.00143478 -0.000263548 14.2962 8.40178 15.2707 
5965 373 3 1.008 0.03 8.09811 3.15373 5.82463 -41.0842 101.518 5.82463 -1 2 0 -0.00479405 -8.48018e-05 -0.00689904 -21.2671 21.5751 -9.03974 
5957 373 2 12.01 0.11 7.66636 4.08086 5.33398 -41.516 102.446 5.33398 -1 2 0 0.00738713 0.0020803 -0.00606527 44.5495 -18.1719 -7.26996 
5964 373 3 1.008 0.03 7.31053 4.79871 6.0384 -41.8718 103.163 6.0384 -1 2 0 -0.0146125 -0.0444317 0.00440756 -15.4165 -0.711564 12.7103 
5963 373 3 1.008 0.03 8.60058 4.60261 5.02616 -40.5818 102.967 5.02616 -1 2 0 0.0206147 0.0198864 -0.00525482 -17.0166 -7.20239 -8.81249 
5967 373 3 1.008 0.03 5.47413 0.450787 1.95076 -43.7082 98.8155 1.95076 -1 2 0 -0.00333879 -0.0129331 -0.0200188 5.76679 0.290481 -5.82351 
5968 373 3 1.008 0.03 5.88992 1.04351 3.61716 -43.2924 99.4082 3.61716 -1 2 0 -0.00983235 -0.020629 0.0230271 -12.4492 -2.50976 -21.3092 
5483 343 3 1.008 0.03 1.21094 5.57125 5.77255 -97.1538 103.936 104.137 -2 2 2 0.0389004 0.0261123 -0.0096149 11.2987 6.36795 -8.9865 
3126 196 2 12.01 0.11 1.54162 5.34146 0.471132 50.724 -43.8409 49.6535 1 -1 1 -0.0023316 -0.00247373 0.00103278 -30.7551 10.0795 -84.6502 
3135 196 3 1.008 0.03 2.46984 5.73152 0.811718 51.6522 -43.4508 49.9941 1 -1 1 0.00664797 0.0014482 -0.0114129 15.9846 12.1728 3.46375 
2933 184 2 12.01 0.11 4.66781 7.64632 1.96511 -44.5145 56.8287 1.96511 -1 1 0 0.00108606 0.00365208 0.00698561 -53.6476 62.8818 26.6144 
7269 455 2 12.01 0.11 7.37197 8.44405 5.90575 56.5543 8.44405 55.0881 1 0 1 -0.00215377 -0.00906156 0.012339 -6.0044 39.7371 60.6 
7276 455 3 1.008 0.03 8.48203 8.59065 5.9926 57.6644 8.59065 55.1749 1 0 1 -0.00324808 -0.000221158 -0.0236429 -21.0756 -11.0541 -1.47421 
4766 298 3 1.008 0.03 1.84592 8.5328 3.69537 51.0283 8.5328 3.69537 1 0 0 -0.00790507 -0.00448331 0.0214237 -6.05123 -28.8269 -17.7419 
5966 373 3 1.008 0.03 4.26012 0.768726 3.12953 -44.9222 99.1334 3.12953 -1 2 0 -0.0208326 -0.0302973 -0.00276423 -19.1144 -3.05283 3.35517 
2941 184 3 1.008 0.03 4.7036 6.91109 1.25453 -44.4788 56.0934 1.25453 -1 1 0 0.0217521 -0.000226926 -0.0107529 2.58671 -33.9859 -30.9203 
8271 517 3 1.008 0.03 0.773223 1.86779 4.81924 99.1379 1.86779 4.81924 2 0 0 -0.0145439 -0.0092004 -0.00275321 -11.7808 4.21382 11.9554 
8262 517 2 12.01 0.11 0.855262 1.87464 5.91175 99.22 1.87464 5.91175 2 0 0 -0.00327744 0.00376723 0.00860013 49.1163 -65.7104 -16.7212 
3270 205 2 12.01 0.11 13.8103 3.807 3.88654 13.8103 52.9894 102.251 0 1 2 -0.0013366 0.00410673 0.00502618 -7.01365 -49.268 16.3423 
3279 205 3 1.008 0.03 14.7806 3.32927 3.75203 14.7806 52.5116 102.117 0 1 2 0.00603748 -0.0107 0.00941218 4.43162 9.64607 -5.46819 
8158 510 3 1.008 0.03 11.6127 5.48782 6.09789 11.6127 54.6702 6.09789 0 1 0 0.00994044 -0.0314569 0.0371565 43.7885 52.2794 2.82147 
2930 184 1 16 -0.4 9.37962 8.01371 2.56582 -39.8027 57.1961 2.56582 -1 1 0 0.00523489 -0.00149443 0.00187245 -29.157 -10.1467 -9.49949 
8150 510 2 12.01 0.11 12.245 6.47101 6.31759 12.245 55.6534 6.31759 0 1 0 0.00157913 -0.00328551 0.00493165 -57.0993 -38.375 -11.8701 
8159 510 3 1.008 0.03 11.8795 6.73974 7.28633 11.8795 55.9221 7.28633 0 1 0 0.00378381 -0.00619635 -0.00459908 -6.82127 7.38997 8.12733 
3266 205 1 16 -0.4 13.2955 4.49391 2.79206 13.2955 53.6763 101.157 0 1 2 -0.00636585 0.00503852 -0.000368962 -7.48446 19.2327 -10.2413 
2943 184 3 1.008 0.03 10.589 7.88465 4.2157 -38.5934 57.067 4.2157 -1 1 0 -0.0029455 -0.0102265 0.00489673 -7.46631 -3.95214 -1.05931 
2934 184 2 12.01 0.11 10.5006 7.47686 3.21066 -38.6817 56.6592 3.21066 -1 1 0 -0.00175606 -0.000564119 -0.00226863 22.9587 -30.2767 -10.2685 
2942 184 3 1.008 0.03 11.4449 7.75768 2.67945 -37.7374 56.94 2.67945 -1 1 0 0.00790719 -0.00706422 0.00727523 -18.1254 -3.33505 7.32779 
8160 510 3 1.008 0.03 11.9307 7.29407 5.64017 11.9307 56.4764 5.64017 0 1 0 0.0113444 0.00890642 -0.00515725 13.5935 -14.2658 10.3025 
3274 205 3 1.008 0.03 13.2333 2.67948 1.76955 13.2333 51.8618 100.134 0 1 2 0.0084827 -0.0131275 0.00633272 -7.17726 20.6419 -7.065 
2944 184 3 1.008 0.03 10.4532 6.34734 3.20843 -38.7292 55.5297 3.20843 -1 1 0 0.00759016 0.0055306 0.00329241 2.96364 26.4947 4.35553 
8154 510 3 1.008 0.03 13.3298 4.59652 7.25833 13.3298 53.7789 7.25833 0 1 0 -0.0197386 -0.0109279 0.00250637 -23.1353 -44.8335 7.33855 
3527 221 3 1.008 0.03 11.1506 0.99509 2.57639 11.1506 50.1774 51.7587 0 1 1 -0.0349351 -0.000120523 -0.00643998 -7.42282 16.523 -7.18437 
3278 205 3 1.008 0.03 13.1838 2.94281 4.12536 13.1838 52.1252 102.49 0 1 2 0.00873322 0.010061 -0.0276644 -3.70695 3.45816 -5.91839 
3268 205 2 12.01 0.14 12.8518 3.73267 1.6728 12.8518 52.915 100.037 0 1 2 -0.00820394 0.00143105 -0.00601152 -17.5801 -10.0438 13.0171 
3273 205 3 1.008 0.03 11.705 3.69472 1.7044 11.705 52.8771 100.069 0 1 2 -0.0178721 0.0156004 -0.0175724 39.1808 1.69918 -7.75198 
2098 132 1 16 -0.4 16.4246 7.2647 2.65028 -32.7577 -91.1 51.8326 -1 -2 1 -0.0006233 -0.00181424 -0.00402018 -1.93461 24.1952 -11.6251 
2105 132 3 1.008 0.03 14.4007 6.6825 2.12453 -34.7817 -91.6822 51.3069 -1 -2 1 -0.0273012 0.0149717 -0.0275694 17.2333 -1.71258 6.27839 
3267 205 2 12.01 0.14 13.4682 4.46389 0.446809 13.4682 53.6462 98.8115 0 1 2 -0.000969413 0.00175797 -0.00916611 -22.8516 1.90737 -16.2068 
2110 132 3 1.008 0.03 16.012 5.72373 3.68901 -33.1703 -92.641 52.8714 -1 -2 1 -0.0185169 -0.0121947 0.0200298 9.20757 -13.4599 -1.01508 
3280 205 3 1.008 0.03 13.761 4.32631 4.82207 13.761 53.5087 103.187 0 1 2 -0.00314702 0.0034637 -0.00894731 6.39546 16.1753 3.77189 
8791 550 3 1.008 0.03 15.6673 2.68161 1.32668 -82.6974 199.411 50.509 -2 4 1 0.00376919 -0.00322232 0.000972351 -17.3153 11.1148 16.0607 
2106 132 3 1.008 0.03 15.4947 6.82225 0.793549 -33.6876 -91.5424 49.9759 -1 -2 1 -0.00356167 0.0226632 -0.00819174 2.88321 13.7713 10.7043 
2100 132 2 12.01 0.14 15.2793 7.262 1.7869 -33.903 -91.1027 50.9692 -1 -2 1 -0.0028793 -0.00551646 0.00752148 -13.7972 -14.03 -3.52656 
8146 510 1 16 -0.4 13.6325 6.34545 6.48568 13.6325 55.5278 6.48568 0 1 0 -0.00293838 0.000207746 0.00062265 3.50809 17.4841 -9.52021 
4906 307 3 1.008 0.03 16.3462 4.51778 5.47392 16.3462 4.51778 5.47392 0 0 0 -0.00104262 -0.00246845 0.00758214 6.218 -5.43537 5.29584 
8787 550 2 12.01 0.14 16.3318 2.3119 0.600942 -82.0329 199.041 49.7833 -2 4 1 -0.00545706 -0.00548279 -0.00308783 14.4061 -18.6658 -14.4754 
8792 550 3 1.008 0.03 16.3315 1.22173 0.663545 -82.0332 197.951 49.8459 -2 4 1 -0.0289116 0.00425284 0.018864 -4.68034 1.89712 0.0119584 
4897 307 1 16 -0.4 15.7725 2.39023 6.65595 15.7725 2.39023 6.65595 0 0 0 -0.0078497 0.00128452 0.00429485 -21.2714 9.70556 13.6693 
4909 307 3 1.008 0.03 15.1685 0.899407 5.45676 15.1685 0.899407 5.45676 0 0 0 -0.0246657 -0.00548975 0.00172912 -8.53813 -7.51949 -11.5409 
7688 481 3 1.008 0.03 16.0405 8.03424 6.28461 16.0405 155.581 6.28461 0 3 0 0.00686665 0.0054828 -0.0167742 6.52213 7.52391 10.2036 
4908 307 3 1.008 0.03 14.168 1.21062 6.86394 14.168 1.21062 6.86394 0 0 0 0.0080244 -0.00740664 0.010075 -41.1498 0.00124563 9.64073 
3272 205 3 1.008 0.03 14.4781 4.78478 0.655328 14.4781 53.9671 99.02 0 1 2 -0.00192542 -0.0249123 -0.000280839 11.337 -13.0767 -2.84171 
8153 510 3 1.008 0.03 14.9456 5.05702 7.08819 14.9456 54.2394 7.08819 0 1 0 -0.0130986 0.00786643 0.010932 -1.12759 -3.25507 2.63909 
4901 307 2 12.01 0.11 15.1281 1.13096 6.50313 15.1281 1.13096 6.50313 0 0 0 -0.00473007 0.00421616 0.0043415 73.6316 -11.6726 4.91967 
8148 510 2 12.01 0.14 13.9657 5.37809 7.43249 13.9657 54.5604 7.43249 0 1 0 0.00675182 -0.00406207 -0.00508901 47.9333 27.4512 -1.80209 
6543 409 3 1.008 0.03 20.7502 0.713686 5.75415 69.9325 49.896 54.9365 1 1 1 -0.021668 -0.0126358 0.00475005 12.2827 0.664266 2.56539 
7309 457 3 1.008 0.03 21.0806 6.45515 3.02583 21.0806 104.82 3.02583 0 2 0 -0.0110607 0.0221631 -0.000886826 -25.1405 7.24955 6.88885 
6542 409 3 1.008 0.03 21.0575 0.722997 4.05844 70.2398 49.9053 53.2408 1 1 1 -0.00674897 0.00510888 -0.0038783 -10.4021 -26.2634 7.84933 
2112 132 3 1.008 0.03 17.6579 6.3137 3.75899 -31.5245 -92.051 52.9413 -1 -2 1 -0.00186481 -0.000734124 0.00707066 37.177 -0.316989 25.3957 
2111 132 3 1.008 0.03 17.1783 5.38829 2.26344 -32.004 -92.9764 51.4458 -1 -2 1 0.0188789 0.0239728 0.00859769 -3.97882 9.03875 23.2569 
2102 132 2 12.01 0.11 16.8936 6.04877 3.12744 -32.2887 -92.3159 52.3098 -1 -2 1 -0.00451425 -0.00704406 -0.00530202 -51.1293 -11.1547 -44.7156 
4899 307 2 12.01 0.14 17.0674 2.5932 6.15391 17.0674 2.5932 6.15391 0 0 0 -0.000388609 0.00567323 -0.00226426 53.6518 -0.142591 -8.97831 
816 51 3 1.008 0.03 24.8593 3.70356 1.33396 172.406 3.70356 -47.8484 3 0 -1 0.00979149 -0.0273938 -0.00144998 36.1981 24.1138 32.8987 
7301 457 2 12.01 0.11 21.8779 6.34741 2.34377 21.8779 104.712 2.34377 0 2 0 -0.00629018 0.00139958 -0.00277286 15.8885 4.19131 -21.9667 
810 51 3 1.008 0.03 23.4651 3.44257 3.12036 171.012 3.44257 -46.062 3 0 -1 -0.0329722 0.0277733 0.0279744 -3.3397 16.0834 13.9079 
2866 180 1 16 -0.4 23.3044 7.48185 6.16745 23.3044 105.847 -43.0149 0 2 -1 -0.00203526 0.00445437 0.00561531 -28.4896 -16.3375 -0.479677 
802 51 1 16 -0.4 23.1521 2.83598 1.14561 170.699 2.83598 -48.0367 3 0 -1 0.00261236 -0.00403432 -0.00822363 -20.529 -19.3787 13.413 
8786 550 1 16 -0.4 18.1505 2.45803 2.18463 -80.2142 199.187 51.367 -2 4 1 0.00365487 -0.00104222 0.0008966 -29.0485 -4.50457 -8.44108 
8790 550 2 12.01 0.11 19.4893 2.70464 2.35738 -78.8754 199.434 51.5397 -2 4 1 0.00261048 -0.000880097 0.000126388 40.315 -39.0619 35.7809 
8799 550 3 1.008 0.03 19.8563 3.55255 1.88337 -78.5084 200.282 51.0657 -2 4 1 -0.0132112 -0.0248857 0.00345369 5.6229 36.7486 -10.4801 
2868 180 2 12.01 0.14 24.6205 7.73795 6.65242 24.6205 106.103 -42.5299 0 2 -1 0.00427121 -0.00303686 0.0039882 15.0774 -26.2734 -24.6112 
8788 550 2 12.01 0.14 17.7265 2.79136 0.872316 -80.6382 199.521 50.0547 -2 4 1 0.000398344 0.00274046 8.27593e-06 20.2603 -16.7064 -2.32929 
2870 180 2 12.01 0.11 22.3116 8.5049 5.9408 22.3116 106.87 -43.2416 0 2 -1 0.000348168 -0.00253616 -0.000111378 43.9882 27.1135 47.4316 
8800 550 3 1.008 0.03 19.6694 2.76276 3.46397 -78.6953 199.492 52.6463 -2 4 1 -0.000310621 0.0191473 0.0139546 0.00732609 1.6857 -22.653 
804 51 2 12.01 0.14 23.0638 2.60304 2.60449 170.611 2.60304 -46.5779 3 0 -1 0.00482561 0.00611357 -0.00345689 6.93303 -42.7908 -27.146 
8794 550 3 1.008 0.03 17.8622 3.82799 0.693701 -80.5025 200.557 49.876 -2 4 1 0.0016608 -0.0133112 -0.0129275 -4.85665 21.1313 -0.311038 
2880 180 3 1.008 0.03 21.2955 8.25242 5.79514 21.2955 106.617 -43.3872 0 2 -1 0.00095159 0.00515985 -0.0139995 -17.3043 -21.1377 -5.58608 
7308 457 3 1.008 0.03 22.4417 7.28358 2.2877 22.4417 105.648 2.2877 0 2 0 0.00237922 -0.00401334 -0.00391929 3.51417 -5.2737 11.8669 
806 51 2 12.01 0.11 24.2163 3.58187 0.55768 171.763 3.58187 -48.6247 3 0 -1 -0.00287077 -0.00979278 0.00457603 -26.5215 -20.2433 -24.3035 
8798 550 3 1.008 0.03 20.1627 1.90797 1.95129 -78.202 198.637 51.1336 -2 4 1 -0.00928946 0.00573464 -0.00639355 -21.4784 7.59443 6.22216 
7303 457 3 1.008 0.03 21.0585 8.06262 0.744017 21.0585 106.427 0.744017 0 2 0 -0.00991169 0.0187532 0.010042 1.88215 15.7394 1.25491 
7307 457 3 1.008 0.03 22.4649 5.54899 2.78652 22.4649 103.914 2.78652 0 2 0 -0.0184885 -0.0222283 0.00410588 7.91179 0.4046 -3.90474 
6123 383 3 1.008 0.03 22.2713 1.99781 6.85127 22.2713 1.99781 105.216 0 0 2 0.00575532 0.00147823 -0.0117237 31.7304 -26.7262 -23.8452 
4905 307 3 1.008 0.03 17.9607 4.33829 5.00023 17.9607 4.33829 5.00023 0 0 0 -0.0113677 -0.00390704 -0.0221901 1.2917 -10.7287 15.5252 
6125 383 3 1.008 0.03 21.3263 3.25786 7.03791 21.3263 3.25786 105.403 0 0 2 0.00966282 -0.00845269 -0.0412987 -15.7606 -5.1824 10.3265 
7297 457 1 16 -0.4 21.5326 6.04838 0.991171 21.5326 104.413 0.991171 0 2 0 0.00059684 0.000763144 0.00344538 -14.0637 11.1554 -12.9325 
4904 307 3 1.008 0.03 17.2307 2.12471 5.16987 17.2307 2.12471 5.16987 0 0 0 0.00784166 -0.00532148 0.000727234 -12.698 -0.343735 7.0285 
801 51 1 16 -0.4 23.7908 1.13109 4.36728 171.338 1.13109 -44.8151 3 0 -1 -0.00678454 0.00486675 -0.000136951 8.66483 -3.20203 24.7776 
809 51 3 1.008 0.03 22.0224 2.30627 2.93005 169.569 2.30627 -46.2523 3 0 -1 0.0262994 0.0216194 0.00241492 27.9129 23.585 -9.49796 
803 51 2 12.01 0.14 23.9001 1.32787 3.00108 171.447 1.32787 -46.1813 3 0 -1 -0.00350294 0.00559491 -0.0072596 -23.9627 53.9517 -39.0594 
7305 457 3 1.008 0.03 18.9175 6.5714 1.07681 18.9175 104.936 1.07681 0 2 0 0.0154301 0.00622551 -0.0227437 6.48982 -2.59683 2.66009 
808 51 3 1.008 0.03 23.5546 0.560113 2.33864 171.102 0.560113 -46.8437 3 0 -1 -0.0121837 0.00443866 0.00866711 -6.26249 -20.105 4.14975 
807 51 3 1.008 0.03 24.8956 1.51089 2.69447 172.443 1.51089 -46.4879 3 0 -1 -0.0120232 -0.0101005 0.0013168 24.0879 2.71609 -0.0517649 
4900 307 2 12.01 0.14 17.2973 4.12651 5.86361 17.2973 4.12651 5.86361 0 0 0 0.0017276 -0.00420986 0.00294241 -15.0848 -8.08946 -25.8686 
4910 307 3 1.008 0.03 19.6442 5.17239 6.80616 19.6442 5.17239 6.80616 0 0 0 0.0295247 -0.0241425 0.014003 2.47547 -6.68613 4.20357 
4903 307 3 1.008 0.03 17.8929 2.13075 6.77945 17.8929 2.13075 6.77945 0 0 0 -0.0112026 0.00353596 -0.0166024 -27.0503 13.9752 -10.2414 
4898 307 1 16 -0.4 17.6151 4.95263 6.95121 17.6151 4.95263 6.95121 0 0 0 -0.00531412 -0.00205297 -0.00384872 4.84062 -4.82211 15.8012 
7275 455 3 1.008 0.03 6.88977 9.22277 6.59865 56.0721 9.22277 55.781 1 0 1 0.00262975 -0.0294012 -0.0289254 25.4033 -20.6794 -23.3272 
7277 455 3 1.008 0.03 7.01484 8.76085 4.96176 56.1972 8.76085 54.1441 1 0 1 0.0143235 0.0321597 0.0120713 -2.65489 -1.94451 -24.1635 
1418 89 3 1.008 0.03 5.13712 13.3959 1.21339 -44.0452 62.5782 50.3957 -1 1 1 0.00578089 0.000158468 -0.00993578 -7.71151 20.6785 0.487437 
7928 496 3 1.008 0.03 0.727302 12.3451 6.51222 0.727302 12.3451 55.6946 0 0 1 -0.0676492 -0.0127805 0.0248575 33.7368 -16.5284 -14.301 
4760 298 3 1.008 0.03 0.752739 12.6535 3.35804 49.9351 12.6535 3.35804 1 0 0 0.0116357 0.0265354 -0.00456051 -26.2987 -9.64976 -8.23096 
4762 298 3 1.008 0.03 1.68816 10.6025 2.12405 50.8705 10.6025 2.12405 1 0 0 -0.00408149 0.0327792 0.00230812 16.2483 6.98825 -4.49725 
5922 371 1 16 -0.4 3.1819 15.2381 4.90099 3.1819 113.603 103.266 0 2 2 0.00112115 0.00250202 -0.00425779 0.243688 -6.46186 -1.95941 
4768 298 3 1.008 0.03 2.14542 8.7988 5.37956 51.3278 8.7988 5.37956 1 0 0 -0.0130977 -0.0162721 0.00948094 -2.98661 11.0696 -4.1141 
4767 298 3 1.008 0.03 3.15865 9.56785 4.11152 52.341 9.56785 4.11152 1 0 0 0.0137803 -0.0188445 0.0129749 2.46848 -4.39815 2.16469 
5929 371 3 1.008 0.03 1.37295 16.0617 4.4139 1.37295 114.426 102.779 0 2 2 0.00468101 -0.0152004 -0.0134173 -10.0228 -0.240435 -0.505079 
1424 89 3 1.008 0.03 3.87049 12.9697 4.54952 -45.3119 62.152 53.7319 -1 1 1 0.0145714 -0.0110996 -0.019942 18.2522 -10.5888 -17.6589 
5928 371 3 1.008 0.03 3.6847 15.7197 2.47956 3.6847 114.084 100.844 0 2 2 -0.00121631 -0.00471095 0.0139103 -15.9627 -2.32832 1.19042 
5927 371 3 1.008 0.03 1.99277 15.8153 1.91746 1.99277 114.18 100.282 0 2 2 -0.0206433 -0.00629718 -0.00641421 -0.495273 4.12789 -2.96511 
5923 371 2 12.01 0.14 2.66563 16.0879 2.7305 2.66563 114.453 101.095 0 2 2 -0.000170757 -0.00147017 -0.00346448 30.9781 -14.1905 -53.6037 
1410 89 1 16 -0.4 3.59493 12.7117 2.51968 -45.5874 61.8941 51.702 -1 1 1 0.00419621 -0.0026584 -0.00573462 45.6191 -5.23843 7.37892 
5930 371 3 1.008 0.03 1.8338 14.5034 3.71857 1.8338 112.868 102.083 0 2 2 -0.0243427 0.000341811 0.0386013 -14.4794 -15.857 -3.97993 
5924 371 2 12.01 0.14 2.16175 15.4794 3.95798 2.16175 113.844 102.323 0 2 2 -0.00111287 0.000116301 -0.00280266 4.68704 -0.616922 37.1888 
1414 89 2 12.01 0.11 4.48982 12.6298 3.67137 -44.6925 61.8121 52.8537 -1 1 1 -0.000219386 0.00393939 -0.00385818 -82.0943 58.1603 -8.39349 
1412 89 2 12.01 0.14 4.43118 12.5946 1.34141 -44.7512 61.7769 50.5238 -1 1 1 0.00825155 -0.00176221 -0.0012271 -7.00728 6.02684 2.58828 
8893 556 3 1.008 0.03 4.42644 11.2448 6.56064 102.791 11.2448 -42.6217 2 0 -1 -0.0162197 0.00461588 -0.00176762 -6.22646 -15.5327 -14.2266 
4758 298 2 12.01 0.11 2.14799 9.25926 4.37794 51.3303 9.25926 4.37794 1 0 0 -0.00389539 0.00669343 0.000386571 17.1561 10.1591 1.3436 
1423 89 3 1.008 0.03 5.26592 13.37 3.5042 -43.9164 62.5523 52.6866 -1 1 1 0.00592418 0.00254532 0.0110644 14.1834 -7.2415 9.78351 
4754 298 1 16 -0.4 1.32612 10.3695 4.15955 50.5085 10.3695 4.15955 1 0 0 0.00141731 -0.00119877 0.000428219 -22.7229 24.5953 9.47102 
1422 89 3 1.008 0.03 4.72685 11.645 3.857 -44.4555 60.8274 53.0394 -1 1 1 0.00278108 0.0157892 0.0114196 25.4121 -36.2943 5.03595 
5926 371 2 12.01 0.11 3.66748 16.3914 5.5184 3.66748 114.756 103.883 0 2 2 0.00520291 -0.00451529 0.00178806 20.5356 25.1159 -10.717 
6462 404 3 1.008 0.03 7.94884 16.152 3.23126 7.94884 -33.0304 3.23126 0 -1 0 -0.00975726 0.0341042 -0.0247099 12.6539 -0.885276 0.92587 
1417 89 3 1.008 0.03 5.18401 11.8584 1.45803 -43.9983 61.0408 50.6404 -1 1 1 0.0121668 -0.00689896 0.0163111 3.13422 -29.3228 -2.84021 
4756 298 2 12.01 0.14 0.872156 10.6341 2.81193 50.0545 10.6341 2.81193 1 0 0 0.00743752 -0.0108653 -0.00505502 20.9443 -33.3903 22.0828 
2936 184 3 1.008 0.03 7.16384 9.24945 2.38177 -42.0185 58.4318 2.38177 -1 1 0 0.014581 0.00557272 0.0044571 4.66171 7.0696 7.24854 
6454 404 2 12.01 0.11 6.95861 16.1136 2.83043 6.95861 -33.0687 2.83043 0 -1 0 -0.0042122 -0.00587627 -0.00678546 -18.8406 50.0583 29.2698 
6463 404 3 1.008 0.03 6.29038 16.5732 3.61657 6.29038 -32.6091 3.61657 0 -1 0 0.0118568 0.00601563 0.00920706 11.5128 -19.6776 -16.1994 
2940 184 3 1.008 0.03 4.36556 8.61987 1.46625 -44.8168 57.8022 1.46625 -1 1 0 -0.0122508 -0.000264552 -0.0212166 20.3082 -22.6262 11.7695 
8234 515 3 1.008 0.03 8.51887 14.3739 5.53314 106.884 14.3739 -43.6492 2 0 -1 -0.010234 0.0141667 -0.00817658 8.08084 -1.29745 24.7662 
8233 515 3 1.008 0.03 7.84059 14.8348 7.16195 106.205 14.8348 -42.0204 2 0 -1 0.00687465 0.00629662 0.0250965 31.1518 1.22744 -29.4314 
6464 404 3 1.008 0.03 6.73031 15.1107 2.63687 6.73031 -34.0717 2.63687 0 -1 0 0.00704506 0.0396943 0.027578 -10.8194 -26.9852 -4.60944 
8062 504 3 1.008 0.03 8.49766 12.2297 0.807097 106.862 61.4121 99.1718 2 1 2 0.0160753 0.00380605 -0.00723061 0.219574 -16.0092 6.24829 
5934 371 3 1.008 0.03 4.47647 16.0827 6.19019 4.47647 114.447 104.555 0 2 2 0.0020893 0.0076894 0.0148977 0.535774 6.36508 -5.6016 
8063 504 3 1.008 0.03 8.39228 13.9505 0.809034 106.757 63.1329 99.1737 2 1 2 0.00498533 -0.00725656 -0.0180536 -2.19807 11.4612 11.9236 
424 27 3 1.008 0.03 14.0412 13.8542 0.591151 14.0412 63.0365 49.7735 0 1 1 0.00983166 0.000908807 -0.0367008 -16.6513 -5.11408 -2.18703 
419 27 2 12.01 0.14 15.0921 13.9706 0.716155 15.0921 63.1529 49.8985 0 1 1 -0.000377677 0.000220614 0.00220844 22.6104 -2.51871 38.0699 
8228 515 2 12.01 0.14 8.78459 14.853 6.5161 107.149 14.853 -42.6663 2 0 -1 0.00378847 0.000504642 -0.00616044 -71.522 5.50331 -20.0282 
2101 132 2 12.01 0.11 13.1188 9.90882 0.564732 -36.0636 -88.4559 49.7471 -1 -2 1 0.00747984 0.00400982 -0.0082462 -3.12792 6.44561 -23.4813 
2099 132 2 12.01 0.14 14.7218 8.68672 1.75511 -34.4606 -89.678 50.9375 -1 -2 1 -0.00137321 -0.0107004 -0.0011584 63.9315 15.9297 4.07394 
2104 132 3 1.008 0.03 14.1475 8.75791 2.6802 -35.0348 -89.6068 51.8625 -1 -2 1 0.0124182 0.0119483 -0.0120838 -5.38492 12.6026 -4.17195 
2103 132 3 1.008 0.03 15.6056 9.43911 1.7306 -33.5768 -88.9256 50.9129 -1 -2 1 0.00614009 0.017336 -0.000544322 -38.2849 -28.5672 7.35055 
7694 481 3 1.008 0.03 14.5227 12.4554 5.31792 14.5227 160.002 5.31792 0 3 0 -0.00695108 -0.0108762 0.0113167 -11.7237 -5.48739 7.26172 
2097 132 1 16 -0.4 14.0555 8.83892 0.549007 -35.1268 -89.5258 49.7314 -1 -2 1 0.0070371 -0.0074592 -0.00291855 -14.6356 11.0535 -19.0269 
426 27 3 1.008 0.03 15.4397 11.8856 1.25772 15.4397 61.068 50.4401 0 1 1 -0.00769769 -0.0195044 -0.00806726 3.51928 -11.445 14.2839 
6685 418 3 1.008 0.03 12.8152 10.2569 4.09565 111.18 -88.1078 53.278 2 -2 1 0.00226371 -0.0053792 -0.0111185 13.9584 0.948047 -2.19356 
6684 418 3 1.008 0.03 11.1405 10.1634 4.0107 109.505 -88.2013 53.193 2 -2 1 -0.0135609 -0.000392506 0.0410808 -21.9942 -9.0191 -4.90869 
6673 418 1 16 -0.4 11.812 12.0539 4.36867 110.177 -86.3108 53.551 2 -2 1 -0.000677864 0.00427959 -0.00261848 19.899 -1.53345 17.1335 
6679 418 3 1.008 0.03 11.8489 12.1388 2.12994 110.214 -86.2259 51.3123 2 -2 1 -0.00457357 -0.0263092 -0.00376214 12.7859 -14.4891 21.3961 
6675 418 2 12.01 0.14 11.4956 12.5152 3.10502 109.86 -85.8495 52.2874 2 -2 1 0.00188727 0.00162111 -0.00843151 -19.1572 26.9953 -34.7623 
6674 418 1 16 -0.4 13.1355 14.2995 3.04023 111.5 -84.0652 52.2226 2 -2 1 -0.00432587 0.0012739 -0.000483858 -34.9997 -9.45935 2.81137 
6676 418 2 12.01 0.14 11.7085 14.0081 3.0954 110.073 -84.3566 52.2778 2 -2 1 -0.00450743 -0.00209117 -0.000157908 21.5942 25.9645 31.8321 
6681 418 3 1.008 0.03 11.1799 14.4692 2.31073 109.545 -83.8955 51.4931 2 -2 1 -0.0253676 -0.0209204 -0.0149697 -3.72503 5.17706 -28.9054 
6682 418 3 1.008 0.03 11.1753 14.5419 3.92065 109.54 -83.8228 53.103 2 -2 1 0.000540135 -0.00658408 -0.00347406 17.1372 -19.58 -3.02485 
6680 418 3 1.008 0.03 10.4358 12.4651 3.02984 108.801 -85.8996 52.2122 2 -2 1 -0.0119345 0.00627519 0.0337025 -18.1765 -11.4404 -1.09016 
6677 418 2 12.01 0.11 11.9188 10.6686 4.51564 110.284 -87.6961 53.698 2 -2 1 -0.00186496 -0.000920693 0.0032519 4.31695 7.80581 -14.0454 
6683 418 3 1.008 0.03 11.8868 10.4752 5.55604 110.251 -87.8895 54.7384 2 -2 1 -0.00594437 0.00688119 0.00458942 -0.527442 -10.5066 19.5736 
5067 317 3 1.008 0.03 12.8664 15.9851 6.40372 -36.3159 114.35 6.40372 -1 2 0 -0.0187246 -0.00942815 -0.00813658 15.7026 -23.5077 7.12608 
8231 515 3 1.008 0.03 9.87208 16.5182 6.87618 108.237 16.5182 -42.3062 2 0 -1 0.0509607 0.010101 -0.000143437 28.7948 22.3072 27.3868 
7686 481 2 12.01 0.11 15.4867 12.183 4.9347 15.4867 159.73 4.9347 0 3 0 0.00202367 0.00439905 -0.00148139 56.4898 18.2282 4.39735 
7696 481 3 1.008 0.03 15.4537 11.8124 3.91741 15.4537 159.359 3.91741 0 3 0 -0.0107958 0.027839 -0.00846515 -8.55186 0.742843 -5.87253 
423 27 3 1.008 0.03 15.254 14.4413 1.72646 15.254 63.6236 50.9088 0 1 1 0.00801138 0.0507442 -0.0300338 -0.732389 -22.1545 -18.7738 
429 27 3 1.008 0.03 14.9348 16.661 0.897654 14.9348 65.8433 50.08 0 1 1 -0.0301912 -0.0110492 -0.0121769 11.7152 2.25646 4.06243 
7689 481 3 1.008 0.03 15.3124 9.8663 4.92675 15.3124 157.413 4.92675 0 3 0 -0.0143421 -0.0174943 -0.0171925 -11.8791 -17.8882 -3.59708 
7684 481 2 12.01 0.14 15.6395 10.087 5.92844 15.6395 157.634 5.92844 0 3 0 -0.000462266 -0.000345122 -0.0016752 17.0443 -2.81382 -7.8516 
7682 481 1 16 -0.4 16.3288 11.3104 5.71644 16.3288 158.857 5.71644 0 3 0 -0.00650301 0.00262738 -0.00102427 -27.3177 5.92817 2.89286 
7683 481 2 12.01 0.14 16.6011 8.98516 6.37629 16.6011 156.532 6.37629 0 3 0 0.000793959 0.00390977 -0.00356875 -38.6547 9.94735 -2.59314 
7695 481 3 1.008 0.03 16.0933 13.1145 4.89559 16.0933 160.662 4.89559 0 3 0 -0.0208358 0.00723016 -0.000101115 -13.8706 -9.45066 -2.51969 
8227 515 2 12.01 0.14 9.15832 16.2949 6.1726 107.523 16.2949 -43.0097 2 0 -1 0.00078849 -0.00374458 0.00918941 11.5118 -46.8537 -2.96799 
420 27 2 12.01 0.14 15.8254 12.5906 0.557113 15.8254 61.7729 49.7395 0 1 1 0.00137301 0.00840899 -0.00322058 -22.6594 36.5414 -43.4946 
5068 317 3 1.008 0.03 13.5625 14.4672 5.80116 -35.6198 112.832 5.80116 -1 2 0 0.0304158 0.0138978 -0.000797125 6.96849 -6.3776 -5.42158 
7690 481 3 1.008 0.03 14.7904 10.117 6.60461 14.7904 157.664 6.60461 0 3 0 -0.00131358 0.0199611 -0.0224061 -1.58344 9.19155 -2.26478 
8226 515 1 16 -0.4 9.74621 14.2321 7.2699 108.111 14.2321 -41.9124 2 0 -1 -0.000804577 0.00284907 0.00577879 33.5746 -0.480494 -5.19177 
5061 317 2 12.01 0.11 13.2468 14.9617 6.70109 -35.9355 113.326 6.70109 -1 2 0 0.000890218 -0.00438958 0.0011622 -12.1293 49.4122 -19.4212 
2107 132 3 1.008 0.03 13.4546 10.9141 0.776118 -35.7277 -87.4506 49.9585 -1 -2 1 -0.0161857 0.0275298 -0.0268382 14.8932 -0.467115 4.58522 
6688 418 3 1.008 0.03 13.1803 16.2628 2.28639 111.545 -82.1019 51.4687 2 -2 1 -0.0196342 0.00389578 0.0168953 -4.66299 -8.84832 8.977 
6678 418 2 12.01 0.11 13.359 15.6728 3.2022 111.724 -82.6919 52.3846 2 -2 1 0.000336363 0.00684233 -0.00497952 6.66871 12.858 -7.26436 
6686 418 3 1.008 0.03 12.8272 16.102 4.04714 111.192 -82.2627 53.2295 2 -2 1 -0.017121 0.017364 -0.00441013 -3.37424 1.24141 -0.160503 
6687 418 3 1.008 0.03 14.4069 15.7782 3.42743 112.772 -82.5865 52.6098 2 -2 1 0.0111962 0.0204381 0.0340243 8.05129 3.63134 1.82987 
8225 515 1 16 -0.4 9.75137 16.3112 4.8933 108.116 16.3112 -44.289 2 0 -1 0.000573489 0.00121923 -0.00581773 -10.3003 -14.4839 1.22974 