ITEM: TIMESTEP
2700000
ITEM: NUMBER OF ATOMS
10479
ITEM: BOX BOUNDS pp pp pp
4.0882558190751794e-01 4.9591174418091420e+01
4.0882558190751794e-01 4.9591174418091420e+01
4.0882558190751794e-01 4.9591174418091420e+01
ITEM: ATOMS id mol type mass q x y z xu yu zu ix iy iz vx vy vz fx fy fz 
10125 636 5 32.06 1.02 3.21466 4.04684 2.86414 3.21466 4.04684 52.0465 0 0 1 0.00533928 -0.00223759 0.00105099 -16.8825 48.7006 9.15478 
10127 636 6 16 -0.53 4.01289 3.46026 3.94394 4.01289 3.46026 53.1263 0 0 1 0.00343663 0.00524056 -0.00029731 -9.88981 -4.92411 -8.69002 
7921 496 1 16 -0.4 4.54613 4.70424 6.57888 4.54613 4.70424 55.7612 0 0 1 0.000794957 0.00249202 -0.00144209 9.57408 9.54867 -29.9507 
10461 672 9 24.305 2 5.32043 3.18603 5.48284 5.32043 3.18603 54.6652 0 0 1 0.000806634 -0.00198656 0.00471079 -16.4778 3.5996 -2.86879 
7923 496 2 12.01 0.14 4.9945 5.92228 5.91437 4.9945 5.92228 55.0967 0 0 1 -0.00624948 0.00893237 0.00082108 -4.83602 -7.90491 34.5771 
2249 141 3 1.008 0.03 2.47933 2.58946 5.84329 2.47933 2.58946 55.0256 0 0 1 -0.00366996 -0.000178905 0.00383624 -9.42718 17.8197 -13.5529 
2242 141 1 16 -0.4 4.25711 2.15874 6.7524 4.25711 2.15874 55.9348 0 0 1 -0.00696915 -0.00309195 0.000582663 1.40801 0.182068 -17.4003 
2244 141 2 12.01 0.14 2.87353 1.89426 6.52906 2.87353 1.89426 55.7114 0 0 1 0.00362838 -0.000327032 -0.00365703 15.6685 -41.9209 -18.395 
10126 636 6 16 -0.53 1.93315 4.62097 3.23866 1.93315 4.62097 52.421 0 0 1 -0.00486135 0.00700122 -0.00368117 9.65224 -22.3989 -3.53846 
7922 496 1 16 -0.4 6.28408 4.58185 4.4997 6.28408 4.58185 53.682 0 0 1 -0.000215317 -0.00298495 -0.00684752 11.8456 27.8592 -8.56561 
7924 496 2 12.01 0.14 6.31211 5.84728 5.21213 6.31211 5.84728 54.3945 0 0 1 0.00544076 0.00162873 0.00867149 45.7644 -38.3831 -8.76319 
974 61 3 1.008 0.03 5.54373 1.70367 2.71114 5.54373 1.70367 51.8935 0 0 1 0.00970843 0.00253017 0.0276316 1.68936 0.199797 3.99239 
962 61 1 16 -0.4 6.34124 1.8192 4.57479 6.34124 1.8192 53.7571 0 0 1 0.0109775 0.00342693 -0.000333988 21.8602 -20.7392 22.2928 
7934 496 3 1.008 0.03 6.87515 3.74908 2.61921 6.87515 3.74908 51.8016 0 0 1 0.0275621 0.0112891 0.0452871 12.0567 33.8946 23.7398 
7926 496 2 12.01 0.11 7.05188 4.68308 3.26415 7.05188 4.68308 52.4465 0 0 1 0.00449499 0.0034461 0.00155489 30.8102 -19.6142 -11.1058 
966 61 2 12.01 0.11 6.35683 1.2713 3.30024 6.35683 1.2713 52.4826 0 0 1 0.00117381 -0.000678273 0.0020007 -33.6154 -16.1636 -35.2787 
964 61 2 12.01 0.14 7.44703 1.20439 5.31334 7.44703 1.20439 54.4957 0 0 1 0.00420539 -0.000248577 -0.00531286 -4.19687 -19.3962 -5.64023 
963 61 2 12.01 0.14 7.90181 2.43801 6.03087 7.90181 2.43801 55.2132 0 0 1 0.0029805 -0.00510591 -0.00812761 21.3449 -25.3283 37.6352 
10129 636 8 19 -0.16 2.56867 1.57206 2.25351 2.56867 1.57206 51.4359 0 0 1 -0.00588193 0.0103948 0.0072247 11.2771 -0.933744 1.31837 
7936 496 3 1.008 0.03 8.1709 4.86625 3.45963 8.1709 4.86625 52.642 0 0 1 -0.00684421 0.0198272 0.00128601 -39.1072 -15.4051 -3.07895 
7935 496 3 1.008 0.03 6.81754 5.52071 2.59636 6.81754 5.52071 51.7787 0 0 1 0.0141089 -0.0230761 -0.00723059 -8.42107 -4.04746 16.3055 
10117 636 4 14.01 -0.66 4.05739 5.00835 1.94981 4.05739 5.00835 51.1322 0 0 1 0.00125745 -0.00200794 -0.00395615 19.8602 -11.9945 12.8288 
10128 636 7 12.01 0.35 2.91272 2.71594 1.67878 2.91272 2.71594 50.8611 0 0 1 -1.49088e-06 0.00170097 0.000606657 34.1448 -19.9771 27.0619 
10120 636 6 16 -0.53 3.78061 7.46938 2.08827 3.78061 7.46938 51.2706 0 0 1 -0.0035253 -0.00505632 0.00325439 -8.22285 42.2173 19.8151 
7929 496 3 1.008 0.03 6.68178 6.70822 4.59286 6.68178 6.70822 53.7752 0 0 1 0.00393672 -0.000398427 0.0051897 -19.6452 -12.2016 13.0179 
10118 636 5 32.06 1.02 3.70094 6.3537 1.23248 3.70094 6.3537 50.4148 0 0 1 -0.00157356 0.000315288 0.00207435 3.56411 -78.1296 -48.3243 
7927 496 3 1.008 0.03 4.27985 6.25589 5.21837 4.27985 6.25589 54.4007 0 0 1 -0.0341034 0.0163175 0.0286195 -23.1477 13.311 -11.0038 
10131 636 8 19 -0.16 4.00209 2.5465 0.944796 4.00209 2.5465 50.1271 0 0 1 0.000615069 0.0034473 -0.00334678 -0.325652 -15.2452 3.5449 
7931 496 3 1.008 0.03 2.54083 5.36235 7.19065 2.54083 5.36235 56.373 0 0 1 0.00064156 0.00352792 -0.0149999 22.0837 0.471155 1.41705 
7928 496 3 1.008 0.03 5.16848 6.60994 6.72551 5.16848 6.60994 55.9079 0 0 1 -0.00587969 0.00605896 -0.000477652 -6.32255 17.7225 -0.112182 
961 61 1 16 -0.4 6.78822 3.06197 6.64743 6.78822 3.06197 55.8298 0 0 1 -0.000329983 0.000559202 0.00130409 13.257 29.7834 27.0622 
975 61 3 1.008 0.03 7.21701 1.46731 2.69283 7.21701 1.46731 51.8752 0 0 1 -0.0086418 -0.0256625 0.0347119 16.6028 1.89058 1.64811 
7930 496 3 1.008 0.03 7.08712 5.68862 5.98972 7.08712 5.68862 55.1721 0 0 1 0.00896691 0.0174606 -0.0294218 -7.82996 11.0218 -14.3095 
969 61 3 1.008 0.03 8.29257 0.662762 4.77981 8.29257 0.662762 53.9622 0 0 1 0.0245463 -0.00122883 -0.0163522 -23.1242 26.9601 0.509818 
967 61 3 1.008 0.03 8.34011 3.10471 5.31722 8.34011 3.10471 54.4996 0 0 1 -0.0143463 -0.00415146 0.0223456 16.1726 10.0648 -2.11726 
2247 141 3 1.008 0.03 1.60818 0.424902 5.62969 1.60818 0.424902 54.812 0 0 1 0.0105782 -0.0099385 0.0196878 1.84947 -6.49603 5.27003 
10130 636 8 19 -0.16 1.99615 2.94004 0.853022 1.99615 2.94004 50.0354 0 0 1 0.00249687 0.00204809 0.00268512 -44.0736 22.5935 -38.56 
3662 229 3 1.008 0.03 0.414577 8.55458 3.31108 0.414577 57.7369 3.31108 0 1 0 -0.00307445 -0.021021 -0.0132507 9.12608 8.96763 7.70388 
2243 141 2 12.01 0.14 2.64942 0.466567 5.95704 2.64942 0.466567 55.1394 0 0 1 0.00569253 0.000762841 0.00087966 -13.7374 16.8135 -10.6551 
10124 636 8 19 -0.16 6.3315 6.13702 0.747482 6.3315 6.13702 49.9298 0 0 1 -0.00351554 0.0057402 0.000382062 -23.9291 7.12732 -26.7141 
968 61 3 1.008 0.03 8.60217 2.05623 6.82023 8.60217 2.05623 56.0026 0 0 1 -0.00353952 -0.00111918 -0.00311304 -3.32219 14.8828 -18.2 
10384 653 8 19 -0.16 0.590179 4.6261 7.21999 0.590179 4.6261 7.21999 0 0 0 -0.00299246 -0.00580732 -0.00074194 -18.1412 10.5197 11.8246 
2250 141 3 1.008 0.03 2.29353 1.95576 7.39785 2.29353 1.95576 56.5802 0 0 1 -0.0196239 -0.00594753 -0.00396844 -15.4838 8.74621 26.8101 
2413 151 3 1.008 0.03 15.2182 1.1361 0.510658 162.765 148.683 98.8754 3 3 2 -0.00582049 -0.0119182 0.0291735 19.0636 5.25325 6.39778 
4011 251 3 1.008 0.03 9.73593 7.11955 2.09912 58.9183 56.3019 149.646 1 1 3 0.00684218 -0.0174541 0.00962409 -20.0948 23.6017 0.625991 
4007 251 3 1.008 0.03 11.1526 3.90326 3.62034 60.335 53.0856 151.167 1 1 3 -0.0018664 0.0216488 0.00799718 -12.5536 3.13322 4.78865 
4003 251 2 12.01 0.14 11.5214 4.8923 3.88846 60.7037 54.0746 151.436 1 1 3 0.000666256 0.00405232 0.00434149 -1.37576 -23.4299 -25.9183 
4004 251 2 12.01 0.14 12.0556 4.85343 5.31497 61.238 54.0358 152.862 1 1 3 0.000654524 -0.00172044 0.00534924 18.188 27.9292 -6.25505 
4010 251 3 1.008 0.03 12.3113 5.90248 5.52024 61.4936 55.0848 153.067 1 1 3 -0.00208116 -0.0122487 -0.0108488 18.4867 -10.6094 2.64496 
4001 251 1 16 -0.4 10.5939 5.94598 3.63539 59.7762 55.1283 151.182 1 1 3 -0.000333911 -0.00337516 0.00673909 -10.53 14.001 -12.2561 
4008 251 3 1.008 0.03 12.3019 4.93672 3.14436 61.4842 54.1191 150.691 1 1 3 -0.00152227 0.0138106 0.0111631 13.5869 9.46179 3.3739 
7494 469 2 12.01 0.11 15.5574 5.31029 3.12219 113.922 -43.8721 101.487 2 -1 2 -0.000334649 0.00279833 -0.00746115 7.26933 -42.2751 -10.2467 
7502 469 3 1.008 0.03 14.9072 4.93705 3.89628 113.272 -44.2453 102.261 2 -1 2 0.00484507 -0.0074164 0.00554853 -0.635285 -3.69902 9.9098 
7504 469 3 1.008 0.03 15.1052 4.974 2.19124 113.47 -44.2083 100.556 2 -1 2 0.0107327 -0.0204441 0.0167723 2.19976 2.40666 -3.30949 
4005 251 2 12.01 0.11 10.5227 6.45209 2.26392 59.7051 55.6344 149.811 1 1 3 0.00660189 0.00434744 -0.00225198 21.7118 -66.6769 13.3233 
9642 604 8 19 -0.16 11.4482 1.47944 2.80583 11.4482 50.6618 2.80583 0 1 0 -0.00515568 -0.00124693 -0.00060405 3.4271 11.2253 -4.8843 
7503 469 3 1.008 0.03 15.5531 6.33456 3.16068 113.918 -42.8478 101.525 2 -1 2 -0.0194689 0.00212772 0.0242114 -5.8531 44.7873 -0.790763 
9641 604 7 12.01 0.35 10.6482 0.865494 1.95333 10.6482 50.0478 1.95333 0 1 0 0.00407837 0.00464008 0.00211297 -3.50765 5.23247 23.9281 
4013 251 3 1.008 0.03 10.4073 5.63732 1.51169 59.5897 54.8197 149.059 1 1 3 -0.0214002 -0.00306092 -0.00124043 -3.91787 8.48749 16.3134 
4012 251 3 1.008 0.03 11.4706 6.85277 1.98934 60.6529 56.0351 149.536 1 1 3 -0.00758895 0.0109977 0.00418041 11.7439 17.1043 -1.96012 
4002 251 1 16 -0.4 11.0424 4.63715 6.207 60.2247 53.8195 153.754 1 1 3 -0.00534296 -0.00332181 0.00260257 -37.2763 -8.37432 9.85509 
4009 251 3 1.008 0.03 12.8628 4.10383 5.46294 62.0452 53.2862 153.01 1 1 3 0.0045648 0.0313014 0.0146343 -4.12388 14.8375 -5.11202 
7489 469 1 16 -0.4 16.0515 5.74987 6.2867 114.416 -43.4325 104.651 2 -1 2 0.0050052 0.0012713 -0.00176503 27.8243 -10.3211 -24.3827 
2062 129 3 1.008 0.03 12.8844 1.15958 6.30052 62.0667 50.3419 55.4829 1 1 1 0.0106254 -0.0133297 -0.0168917 -4.25921 5.5088 -1.11834 
2054 129 2 12.01 0.11 13.7164 0.739076 5.7476 62.8988 49.9214 54.9299 1 1 1 -0.00156151 0.0055677 0.00496877 62.5308 12.3558 2.41252 
2405 151 2 12.01 0.11 14.4344 0.864332 1.19325 161.981 148.411 99.5579 3 3 2 -6.9911e-05 -0.00144302 0.0058333 -29.3852 -7.80068 -18.0531 
7496 469 3 1.008 0.03 16.5555 3.76313 5.59365 114.92 -45.4192 103.958 2 -1 2 0.0200041 -0.00931393 0.0209513 14.1551 35.1025 -1.34618 
7499 469 3 1.008 0.03 15.1267 4.19439 7.22896 113.491 -44.988 105.594 2 -1 2 0.00489844 0.030584 -0.0273326 3.64723 32.1097 20.5112 
9640 604 6 16 -0.53 9.41392 3.03554 1.6782 9.41392 52.2179 1.6782 0 1 0 -0.000698678 -0.00351053 -0.00548792 4.25617 -5.12575 -17.3657 
9638 604 5 32.06 1.02 9.80521 1.97108 0.765962 9.80521 51.1534 0.765962 0 1 0 0.00144789 0.001061 -0.000655498 0.272071 30.7801 48.5003 
2412 151 3 1.008 0.03 13.7695 1.72116 1.35174 161.317 149.268 99.7164 3 3 2 1.57045e-05 -0.00396425 -0.00220083 4.84429 -1.57651 0.771433 
2063 129 3 1.008 0.03 14.3712 1.56654 5.26316 63.5536 50.7489 54.4455 1 1 1 -0.0190602 -0.015081 -0.00577597 -35.2933 -31.452 14.0779 
10142 637 6 16 -0.53 24.3863 1.49039 5.83514 -24.796 50.6727 5.83514 -1 1 0 0.00118642 0.00371086 -0.00172214 -16.6203 -12.0509 12.5534 
8019 502 2 12.01 0.14 23.4981 4.80533 7.39506 72.6805 53.9877 105.76 1 1 2 -0.00221641 -0.00550995 0.00018811 20.3564 6.91131 14.7982 
2105 132 3 1.008 0.03 18.2032 0.590132 1.76321 -30.9792 -97.7746 50.9456 -1 -2 1 -0.0184245 -0.00845396 -0.00966898 -6.90354 0.94481 1.46408 
8024 502 3 1.008 0.03 22.7325 4.13293 7.07807 71.9148 53.3153 105.443 1 1 2 -0.00102915 -0.00140997 0.00938334 -0.723742 -21.1247 -7.93342 
2111 132 3 1.008 0.03 21.0563 2.99204 1.04826 -28.1261 -95.3727 50.2306 -1 -2 1 0.00316092 -0.00856627 0.0188548 23.9043 22.0188 0.776867 
10146 637 8 19 -0.16 21.6929 0.715583 7.18618 -27.4894 49.8979 7.18618 -1 1 0 -0.00247132 0.00472978 0.000204548 -10.807 0.626753 -4.66386 
2103 132 3 1.008 0.03 16.8365 1.50615 3.73365 -32.3458 -96.8585 52.916 -1 -2 1 -0.00618859 -0.00347482 0.0140744 -39.4945 -9.66028 7.85437 
2104 132 3 1.008 0.03 18.1573 2.34742 4.31646 -31.0251 -96.0173 53.4988 -1 -2 1 -0.021612 -0.00500672 -0.000608436 4.14398 5.8852 -3.43828 
7491 469 2 12.01 0.14 17.0065 4.81032 5.712 115.371 -44.372 104.077 2 -1 2 0.00261787 -0.00129968 0.000220595 -32.431 -24.3272 42.0791 
7490 469 1 16 -0.4 16.9061 4.86031 3.21231 115.271 -44.322 101.577 2 -1 2 -0.00314951 -0.000728795 -0.00550382 -2.5654 0.18126 12.2735 
7492 469 2 12.01 0.14 17.5279 5.36779 4.40074 115.893 -43.8146 102.765 2 -1 2 0.00135442 -0.00295412 0.00169787 12.2645 61.5783 6.97433 
7497 469 3 1.008 0.03 17.6265 6.52323 4.412 115.991 -42.6591 102.777 2 -1 2 0.000569644 -0.00426545 -0.0182618 -15.9017 -45.5892 -2.20642 
7498 469 3 1.008 0.03 18.566 5.1714 4.50254 116.931 -44.011 102.867 2 -1 2 0.00226354 -0.0012441 -0.00673747 19.0209 -16.1787 -17.4117 
5270 330 2 12.01 0.11 21.9754 3.71597 3.86628 71.1578 -45.4664 -45.3161 1 -1 -1 -0.00675104 -0.00420656 -0.00526753 -2.15784 42.5522 21.2872 
2106 132 3 1.008 0.03 17.6751 2.27007 1.72338 -31.5073 -96.0946 50.9057 -1 -2 1 -0.00257138 0.025657 -0.00224505 -7.79563 5.69845 -0.772891 
5271 330 3 1.008 0.03 23.9072 6.99807 1.36903 73.0896 -42.1843 -47.8133 1 -1 -1 -0.00194713 0.00690738 0.00447937 14.0131 12.3049 -10.7942 
5274 330 3 1.008 0.03 23.8429 4.67863 1.91502 73.0253 -44.5037 -47.2673 1 -1 -1 -0.0113241 -0.0232385 -0.0161143 -8.65186 3.71331 8.90558 
5273 330 3 1.008 0.03 22.1951 5.34282 1.74754 71.3775 -43.8395 -47.4348 1 -1 -1 0.00257862 -0.00163054 0.0133277 17.5921 -3.61357 15.8718 
2098 132 1 16 -0.4 19.6877 1.94861 2.18587 -29.4947 -96.4161 51.3682 -1 -2 1 -0.00365091 0.00631453 -0.00145308 -12.9298 14.9119 -28.2154 
2102 132 2 12.01 0.11 20.1505 2.50129 0.88175 -29.0318 -95.8634 50.0641 -1 -2 1 -0.000490344 0.00537441 -0.00904526 -51.9444 -38.3631 50.103 
2100 132 2 12.01 0.14 18.2706 1.55553 2.26918 -30.9117 -96.8092 51.4515 -1 -2 1 0.0012867 -0.00538961 0.00116495 57.9524 -1.03781 -8.4739 
5269 330 2 12.01 0.11 21.7174 8.12804 2.11768 70.8998 -41.0543 -47.0647 1 -1 -1 0.00422903 -0.0112798 -0.00607456 3.46648 -0.477267 11.7568 
5268 330 2 12.01 0.14 23.1106 5.35412 2.40018 72.2929 -43.8282 -46.7822 1 -1 -1 0.0108002 0.000233328 -0.00174905 -22.027 -12.127 -32.4548 
5265 330 1 16 -0.4 22.7729 7.67442 2.96035 71.9552 -41.5079 -46.222 1 -1 -1 -0.00481324 -0.00204736 -0.0041972 -13.0617 8.61356 -0.976517 
5267 330 2 12.01 0.14 23.6785 6.7709 2.38704 72.8608 -42.4115 -46.7953 1 -1 -1 0.00472626 -0.0011849 0.00215077 -21.7846 -17.4074 13.819 
5272 330 3 1.008 0.03 24.4978 6.77539 3.06961 73.6801 -42.407 -46.1127 1 -1 -1 -0.0138929 -0.0112616 0.0163328 21.2636 1.45085 -3.28332 
5278 330 3 1.008 0.03 20.9628 3.9954 3.63726 70.1452 -45.1869 -45.5451 1 -1 -1 0.0111351 -0.00902236 0.0258273 -7.80886 4.44353 -8.87972 
5266 330 1 16 -0.4 22.7995 4.93131 3.71438 71.9818 -44.251 -45.468 1 -1 -1 -0.00315623 0.00244279 0.00383311 -8.3141 -28.6469 20.1905 
5275 330 3 1.008 0.03 21.2879 7.37673 1.46399 70.4702 -41.8056 -47.7184 1 -1 -1 0.0192928 -0.0101608 0.0025714 -5.361 -6.78936 5.47035 
5276 330 3 1.008 0.03 20.9712 8.54925 2.80796 70.1536 -40.6331 -46.3744 1 -1 -1 -0.0340255 0.00764388 0.0012072 -0.796951 -1.64013 -10.9431 
2099 132 2 12.01 0.14 17.8696 1.47115 3.74629 -31.3127 -96.8935 52.9286 -1 -2 1 -0.0121326 0.00184152 -0.0040001 32.6052 9.77397 -0.619682 
10144 637 8 19 -0.16 21.7565 0.513604 5.0499 -27.4258 49.696 5.0499 -1 1 0 0.00425955 -0.00257241 0.00202049 -13.0193 6.42515 -10.9423 
5280 330 3 1.008 0.03 21.8161 3.40074 4.93672 70.9984 -45.7816 -44.2456 1 -1 -1 -0.00475158 0.0170126 0.0114025 16.7589 0.656738 -24.2661 
5279 330 3 1.008 0.03 22.1925 2.9269 3.1778 71.3748 -46.2555 -46.0045 1 -1 -1 -0.0160167 -0.00961235 0.0140534 11.2936 -13.9793 -2.26221 
7495 469 3 1.008 0.03 17.7925 4.68973 6.50135 116.157 -44.4926 104.866 2 -1 2 0.0230489 0.00500223 -0.0174929 -7.77582 3.9278 -19.4876 
2557 160 3 1.008 0.03 17.1265 7.23918 1.66165 17.1265 56.4215 -47.5207 0 1 -1 0.0107008 0.0105978 0.00827095 11.4855 27.0919 -4.10311 
2549 160 2 12.01 0.11 17.587 8.27264 1.68658 17.587 57.455 -47.4958 0 1 -1 0.00347452 -0.000311293 0.000285799 -6.47655 -9.2875 -18.1543 
2555 160 3 1.008 0.03 18.4861 8.21302 2.28234 18.4861 57.3954 -46.9 0 1 -1 0.0123457 -0.020083 0.00542398 9.93616 -3.33831 -2.73485 
6701 419 3 1.008 0.03 24.6198 8.35482 5.16866 24.6198 8.35482 -44.0137 0 0 -1 0.0231896 0.00875871 -0.0022035 -11.3003 -8.23019 9.84735 
2110 132 3 1.008 0.03 19.3611 3.13749 0.469536 -29.8212 -95.2272 49.6519 -1 -2 1 -0.017477 0.00338507 0.0109943 8.84031 4.14252 -3.19336 
8023 502 3 1.008 0.03 24.0876 5.12639 6.56805 73.27 54.3087 104.933 1 1 2 0.0240609 -0.00975491 -0.00516504 -2.08319 4.28178 -20.8622 
4986 312 3 1.008 0.03 24.3156 1.73437 0.722536 24.3156 -47.448 49.9049 0 -1 1 0.00888221 -0.00450951 0.00941766 -42.0873 23.9607 -4.0562 
4984 312 3 1.008 0.03 24.7951 0.435203 2.80402 24.7951 -48.7471 51.9864 0 -1 1 0.012129 0.0246164 -0.000359253 8.82044 7.53242 -8.31514 
2107 132 3 1.008 0.03 18.5729 0.728729 6.42497 -30.6094 -97.636 55.6073 -1 -2 1 -0.04363 0.00886588 0.0256788 13.2161 16.1894 20.449 
8025 502 3 1.008 0.03 21.9431 6.21431 7.26296 71.1254 55.3967 105.628 1 1 2 -0.0365137 0.00706053 -0.025944 0.758821 7.15161 -2.30226 
3789 237 3 1.008 0.03 2.85239 11.3542 1.00747 2.85239 60.5365 1.00747 0 1 0 0.0308513 -0.0117301 -0.0161652 16.9183 13.4314 15.2374 
4491 281 3 1.008 0.03 8.434 8.91425 3.14562 106.799 -40.2681 150.693 2 -1 3 0.0220886 0.0194695 0.00349426 -17.6879 4.43772 18.8969 
3654 229 2 12.01 0.11 0.490689 9.58511 2.93114 0.490689 58.7675 2.93114 0 1 0 0.00206191 0.0104105 -0.00351642 10.8712 5.62267 11.3307 
4490 281 3 1.008 0.03 5.94188 12.5943 2.7102 104.307 -36.588 150.257 2 -1 3 -0.00534202 -0.000841109 0.0268623 12.2634 -4.15713 17.297 
4496 281 3 1.008 0.03 4.06746 13.7078 2.98123 102.432 -35.4745 150.528 2 -1 3 -0.0120617 0.00420428 0.0132616 8.97194 -2.34258 2.87288 
4495 281 3 1.008 0.03 4.98199 15.1283 3.37629 103.347 -34.0541 150.923 2 -1 3 -0.0048689 -0.000843014 -0.0112173 4.48552 -4.16229 10.1748 
4482 281 1 16 -0.4 5.38294 13.373 4.60086 103.748 -35.8094 152.148 2 -1 3 0.00249994 -0.00136923 -0.00953377 -3.79893 0.278296 -21.0794 
4484 281 2 12.01 0.14 6.37206 12.8314 3.71733 104.737 -36.351 151.264 2 -1 3 0.00149482 0.00431731 0.00131799 7.93674 4.81437 7.74198 
2894 181 3 1.008 0.03 5.865 16.0835 7.30646 5.865 16.0835 -41.8759 0 0 -1 -0.0187986 -0.00707182 0.0071568 -10.6533 -14.6735 -6.04277 
4489 281 3 1.008 0.03 7.10316 13.6265 3.60883 105.468 -35.5559 151.156 2 -1 3 0.00729202 -0.00908266 0.0345995 -2.16686 4.57293 -10.2014 
4486 281 2 12.01 0.11 4.53754 14.2337 3.82338 102.902 -34.9487 151.37 2 -1 3 -0.00286324 0.000672753 -0.00290579 -22.5418 -6.32822 -9.16281 
4494 281 3 1.008 0.03 3.62377 14.5022 4.34625 101.988 -34.6802 151.893 2 -1 3 1.53032e-05 0.00410098 -0.0182215 6.15083 5.44409 12.0505 
4483 281 2 12.01 0.14 7.18038 11.6937 4.39729 105.545 -37.4886 151.944 2 -1 3 0.0065154 -0.00402119 -0.0104666 -19.5595 11.8853 -32.155 
4487 281 3 1.008 0.03 6.5716 11.419 5.2541 104.936 -37.7633 152.801 2 -1 3 -0.012758 0.0285739 0.0108579 0.999763 -15.1678 -1.01161 
377 24 3 1.008 0.03 3.18143 14.9894 7.23979 150.728 -34.193 7.23979 3 -1 0 -0.0133633 -0.00478066 -0.000885577 4.90814 1.76075 9.72519 
375 24 3 1.008 0.03 1.11488 14.1745 6.34125 148.662 -35.0078 6.34125 3 -1 0 -0.0118596 0.0250068 -0.00479226 3.03352 5.13111 32.6036 
3663 229 3 1.008 0.03 1.46663 9.79136 2.53252 1.46663 58.9737 2.53252 0 1 0 0.00682024 -0.00820916 -0.00751555 9.49907 -8.68204 -10.2948 
4488 281 3 1.008 0.03 8.11053 12.123 4.77969 106.475 -37.0593 152.327 2 -1 3 -0.00701068 -0.0231714 0.00939392 0.0138433 -5.30907 -7.44201 
4481 281 1 16 -0.4 7.38583 10.6687 3.39075 105.751 -38.5137 150.938 2 -1 3 -0.0012262 0.00378686 0.00231267 -0.985223 -4.03518 27.8756 
371 24 2 12.01 0.14 1.13453 14.6328 7.38374 148.682 -34.5496 7.38374 3 -1 0 -0.00212469 -0.00367206 -0.00230789 -25.5288 15.5159 -35.6492 
9850 618 6 16 -0.53 2.26039 16.4747 3.08564 51.4427 65.6571 3.08564 1 1 0 -0.00436487 -0.00348354 0.00111314 1.07532 -8.29594 -7.24898 
710 45 2 12.01 0.11 8.45884 14.3883 0.803274 8.45884 -83.9764 0.803274 0 -2 0 0.00128688 0.0114313 -0.00396208 17.6859 -51.6189 25.8813 
3664 229 3 1.008 0.03 0.411025 10.396 3.65662 0.411025 59.5783 3.65662 0 1 0 -0.0208487 0.00267535 0.00510897 -3.87208 -12.825 12.3029 
9848 618 5 32.06 1.02 0.898131 16.0217 3.2355 50.0805 65.2041 3.2355 1 1 0 0.00387419 0.000815405 0.00446967 -19.3089 23.5043 -10.0314 
372 24 2 12.01 0.14 2.29641 15.6044 7.39228 149.843 -33.5779 7.39228 3 -1 0 -0.00385855 -0.00197795 0.00736646 12.3738 -12.3862 -12.4721 
9617 602 6 16 -0.53 8.33198 11.5741 7.11378 57.5143 60.7565 56.2961 1 1 1 0.000606551 0.000116986 -0.00526595 12.4731 -11.9203 31.5583 
4493 281 3 1.008 0.03 7.12497 8.8534 4.4765 105.49 -40.3289 152.024 2 -1 3 -0.00374312 -0.0216408 0.00502702 19.3201 13.886 -6.92497 
4485 281 2 12.01 0.11 7.9185 9.4711 3.97577 106.283 -39.7113 151.523 2 -1 3 -0.00492631 0.00220623 0.00220158 27.952 11.9197 -7.4028 
9847 618 4 14.01 -0.66 0.449393 14.7945 2.41741 49.6317 63.9769 2.41741 1 1 0 -0.00126118 -0.0023897 -0.00271088 -7.4745 -30.6508 -46.9434 
2886 181 2 12.01 0.11 6.72592 16.6497 7.04726 6.72592 16.6497 -42.1351 0 0 -1 -0.00144678 -0.00752942 0.00155871 34.3091 0.468324 5.16524 
2895 181 3 1.008 0.03 6.97972 16.603 5.97197 6.97972 16.603 -43.2104 0 0 -1 0.0271025 -0.000227966 0.0475225 -8.98286 -0.484554 7.7911 
378 24 3 1.008 0.03 2.31471 16.1986 6.47956 149.862 -32.9837 6.47956 3 -1 0 0.00990646 -0.0174074 0.00578612 -8.06818 7.33383 3.0801 
10063 632 8 19 -0.16 6.23299 16.4939 2.29579 55.4153 16.4939 51.4781 1 0 1 -0.00252601 -0.0100488 -0.00147143 21.1458 -24.8455 15.3619 
720 45 3 1.008 0.03 7.48869 14.7539 1.03753 7.48869 -83.6108 1.03753 0 -2 0 -0.00937447 -0.0191731 0.00615909 -13.7701 18.3428 -2.42998 
3788 237 3 1.008 0.03 1.74455 12.8401 0.674003 1.74455 62.0225 0.674003 0 1 0 0.0342183 0.0121041 -0.0162119 9.63014 -4.33746 15.6784 
4686 293 3 1.008 0.03 8.63384 9.347 0.720933 -40.5485 58.5293 49.9033 -1 1 1 0.00768782 -0.000701273 0.0123232 16.4176 25.721 -12.9053 
9619 602 8 19 -0.16 10.4206 9.8483 6.85637 59.603 59.0307 56.0387 1 1 1 -0.00236959 -0.00159474 -0.000892228 11.8647 -0.507905 -9.30875 
7299 457 2 12.01 0.14 14.0735 11.5254 1.4081 14.0735 109.89 1.4081 0 2 0 0.00371024 -0.00061325 0.000306824 4.87757 -7.06825 23.9167 
7303 457 3 1.008 0.03 15.0814 11.0563 1.29307 15.0814 109.421 1.29307 0 2 0 -0.00358273 -0.0119293 0.0218221 -17.2389 6.14738 -0.850785 
4687 293 3 1.008 0.03 9.88751 10.5576 1.26938 -39.2948 59.74 50.4517 -1 1 1 -0.00415498 0.00207804 0.0208732 -12.1234 -4.30614 -15.6266 
7305 457 3 1.008 0.03 13.3856 13.6042 0.920002 13.3856 111.969 0.920002 0 2 0 -0.0223458 0.0494221 0.0140719 -19.6826 -6.43543 -12.5285 
706 45 1 16 -0.4 9.0722 13.9095 2.03545 9.0722 -84.4552 2.03545 0 -2 0 -0.00479207 0.00194312 -0.000421324 -8.74202 5.62642 -41.1139 
7308 457 3 1.008 0.03 14.4423 9.45954 3.0798 14.4423 107.824 3.0798 0 2 0 0.00238497 0.00716942 -0.00871427 -7.03953 -2.20346 -7.94991 
7301 457 2 12.01 0.11 13.4954 10.0011 3.19366 13.4954 108.366 3.19366 0 2 0 0.00449436 -0.00474975 -0.00115522 3.4177 -8.93226 -3.03352 
7307 457 3 1.008 0.03 12.6778 9.64127 2.55473 12.6778 108.006 2.55473 0 2 0 0.00944631 0.0155771 -0.0143523 6.4464 -10.3046 5.92176 
713 45 3 1.008 0.03 8.89439 15.7961 2.92499 8.89439 -82.5686 2.92499 0 -2 0 0.00394937 -0.00156431 -0.0147271 11.4956 -23.3295 -1.27827 
714 45 3 1.008 0.03 10.4478 15.5219 2.20122 10.4478 -82.8428 2.20122 0 -2 0 -0.0110207 0.00982721 0.0152948 -7.95757 -10.5759 -5.12563 
4492 281 3 1.008 0.03 8.77645 9.78447 4.65375 107.141 -39.3979 152.201 2 -1 3 0.0323908 0.00058441 0.00413743 -27.5568 -15.3303 -10.6156 
709 45 2 12.01 0.11 10.4001 14.6303 6.35914 10.4001 -83.7344 6.35914 0 -2 0 0.00154867 0.00387948 -0.00438629 31.9765 -18.9698 2.24091 
716 45 3 1.008 0.03 9.93648 13.6559 6.45055 9.93648 -84.7088 6.45055 0 -2 0 0.018116 0.012456 0.018391 -2.66162 -4.20013 -3.12228 
715 45 3 1.008 0.03 10.0248 15.1747 7.1879 10.0248 -83.1899 7.1879 0 -2 0 -0.00211872 -0.00573066 -0.0159253 -2.60231 12.6408 16.1603 
717 45 3 1.008 0.03 11.5157 14.4722 6.48184 11.5157 -83.8925 6.48184 0 -2 0 0.0191139 0.0116522 0.0118298 -27.6941 8.36148 -6.51284 
707 45 2 12.01 0.14 10.2583 14.4737 4.03389 10.2583 -83.891 4.03389 0 -2 0 -0.00882447 0.00325258 0.00175005 10.9121 -1.88354 -16.5477 
708 45 2 12.01 0.14 9.64514 14.9775 2.72794 9.64514 -83.3872 2.72794 0 -2 0 0.00195877 0.00117332 0.00635229 -2.04905 54.7291 22.1044 
8109 507 3 1.008 0.03 15.2903 11.8459 6.79089 64.4726 11.8459 105.156 1 0 2 0.0150387 0.0138295 0.00269333 -9.39982 8.36027 19.7025 
8107 507 3 1.008 0.03 16.648 13.08 7.07703 65.8304 13.08 105.442 1 0 2 0.01592 -0.00287296 0.0104756 -9.10343 -20.8057 -10.4895 
8101 507 2 12.01 0.11 15.9012 12.6319 6.37464 65.0836 12.6319 104.739 1 0 2 0.00696388 -0.00271565 0.00858122 38.945 -32.7006 -23.8516 
8108 507 3 1.008 0.03 15.3111 13.4438 6.1068 64.4934 13.4438 104.471 1 0 2 0.00262544 -0.0121629 0.00266223 -24.5329 21.4709 -13.7316 
711 45 3 1.008 0.03 11.3339 14.416 3.84673 11.3339 -83.9487 3.84673 0 -2 0 -0.0145781 -0.00389058 -0.0217309 -0.492094 -3.42711 6.19777 
705 45 1 16 -0.4 10.0177 15.2893 5.17884 10.0177 -83.0753 5.17884 0 -2 0 0.0058422 8.71284e-05 0.000616441 -6.54718 -2.2912 -12.9438 
712 45 3 1.008 0.03 9.89961 13.454 4.09931 9.89961 -84.9107 4.09931 0 -2 0 0.000136836 -0.00775791 -0.00363844 -0.111195 -4.71145 16.0879 
10150 638 6 16 -0.53 15.6251 16.2158 5.89936 15.6251 16.2158 55.0817 0 0 1 0.00566208 -0.00713772 -0.00227439 -42.0437 -23.4799 5.32469 
7309 457 3 1.008 0.03 13.247 9.86734 4.25118 13.247 108.232 4.25118 0 2 0 0.0161015 0.0269213 0.00138059 -5.57672 6.58227 -3.50451 
7297 457 1 16 -0.4 13.6771 11.333 2.81513 13.6771 109.698 2.81513 0 2 0 -0.00395926 -0.000957455 0.00427891 4.87494 13.3844 -29.3514 
4955 310 3 1.008 0.03 15.0552 16.3288 3.36663 64.2376 16.3288 3.36663 1 0 0 -0.00201774 0.00856819 -0.02258 -11.463 -18.3762 2.73288 
8097 507 1 16 -0.4 16.4327 11.926 5.19699 65.6151 11.926 103.562 1 0 2 0.00727567 0.000665767 0.00710244 -2.52022 5.97917 45.987 
7806 488 3 1.008 0.03 16.3463 14.5137 3.61153 65.5286 14.5137 3.61153 1 0 0 0.00147607 0.00500935 -0.0337042 15.0057 3.09625 -24.0871 
8100 507 2 12.01 0.14 16.5593 9.60565 6.12121 65.7417 9.60565 104.486 1 0 2 -0.00153824 -0.00811551 0.00248333 -5.72263 -25.646 47.0891 
8105 507 3 1.008 0.03 15.5985 9.60474 5.63943 64.7809 9.60474 104.004 1 0 2 0.0254506 0.0032078 -0.000887861 -8.47507 -6.77895 -8.22889 
7306 457 3 1.008 0.03 14.2487 13.5606 2.31589 14.2487 111.925 2.31589 0 2 0 -0.0255773 0.0246916 -0.00531489 9.01255 -22.7806 -27.2679 
4951 310 3 1.008 0.03 16.0615 16.2875 0.611016 65.2439 16.2875 0.611016 1 0 0 0.0103483 0.0162896 0.00219603 14.8532 12.8362 3.5581 
7300 457 2 12.01 0.14 14.2228 13.0574 1.29194 14.2228 111.422 1.29194 0 2 0 -0.00092975 0.00216641 0.000319702 10.8683 35.9979 22.6101 
7304 457 3 1.008 0.03 13.3959 11.1115 0.61354 13.3959 109.476 0.61354 0 2 0 0.0106447 -0.010557 -0.0277831 9.30724 6.05693 19.9282 
7298 457 1 16 -0.4 15.3648 13.5061 0.551031 15.3648 111.871 0.551031 0 2 0 0.00160195 0.00256094 0.000304673 -1.95394 3.17503 23.2605 
1835 115 3 1.008 0.03 24.6392 13.6166 3.58416 -24.5431 13.6166 -143.963 -1 0 -3 0.00282285 0.00719319 0.0111502 -3.84635 -18.6236 0.192498 
5277 330 3 1.008 0.03 22.0525 8.89364 1.44051 71.2348 -40.2887 -47.7418 1 -1 -1 -0.0158372 0.00296688 0.021581 5.59276 10.2527 -1.86833 
8106 507 3 1.008 0.03 17.1156 8.65323 5.86124 66.2979 8.65323 104.226 1 0 2 -0.0168203 -0.0201944 0.00547875 -14.2533 23.8733 7.30034 
10148 638 5 32.06 1.02 16.8929 16.5727 6.39127 16.8929 16.5727 55.5736 0 0 1 -0.00135682 0.00672054 -0.00151626 3.20602 -1.29141 -22.4521 
8099 507 2 12.01 0.14 17.2645 10.8367 5.63993 66.4469 10.8367 104.005 1 0 2 -0.00681386 0.00214377 0.000971997 8.18526 20.4868 -7.58013 
8103 507 3 1.008 0.03 17.8604 10.5123 4.82777 67.0427 10.5123 103.192 1 0 2 0.00689042 -0.022084 -0.00392384 9.13845 -1.86609 -21.1877 
8104 507 3 1.008 0.03 17.9963 11.1881 6.34424 67.1786 11.1881 104.709 1 0 2 -0.0207359 -0.00292864 0.00450753 6.42248 2.13302 9.90093 
1829 115 2 12.01 0.11 24.196 12.6044 3.7511 -24.9863 12.6044 -143.796 -1 0 -3 0.00317026 -0.000128742 -0.0032689 -2.08258 35.4874 -31.2149 
1825 115 1 16 -0.4 22.8418 12.8441 4.0761 -26.3406 12.8441 -143.471 -1 0 -3 -0.000352941 -0.00668001 -0.00289403 -24.7758 -33.2834 -0.152207 
10113 635 7 12.01 0.35 24.7799 15.2611 0.54794 123.145 64.4435 0.54794 2 1 0 0.00214057 -0.00274524 0.00297686 6.8246 -43.8385 -1.32721 
10147 638 4 14.01 -0.66 17.6482 15.378 7.04707 17.6482 15.378 56.2294 0 0 1 0.00631605 -0.00105508 -0.00773662 25.0672 35.2311 -1.05658 
1832 115 3 1.008 0.03 22.3132 10.9507 3.26002 -26.8691 10.9507 -144.287 -1 0 -3 0.0128947 -0.0231163 -0.0155532 -1.83603 1.98336 -0.0499871 
10114 635 8 19 -0.16 24.6956 13.9017 0.675843 123.06 63.0841 0.675843 2 1 0 0.00413943 0.00259768 -0.00115559 4.14183 40.5165 12.4228 
10160 638 8 19 -0.16 20.2604 13.9603 6.60253 20.2604 13.9603 55.7849 0 0 1 -0.000264754 -0.00059333 -0.000775234 1.49567 2.97856 8.71864 
1840 115 3 1.008 0.03 20.3294 8.61973 6.97618 -28.853 8.61973 -140.571 -1 0 -3 -0.000881851 -0.00228187 0.00313312 9.07164 8.00466 -9.97163 
1830 115 2 12.01 0.11 21.1289 9.38379 6.89515 -28.0534 9.38379 -140.652 -1 0 -3 0.00203108 0.00358262 -0.00236626 -3.40286 -33.9183 72.9481 
1827 115 2 12.01 0.14 22.0813 11.5867 4.11879 -27.101 11.5867 -143.428 -1 0 -3 0.00124682 -0.00219999 -0.00335078 -0.347577 0.585889 20.9663 
7807 488 3 1.008 0.03 17.1809 13.9205 2.03195 66.3632 13.9205 2.03195 1 0 0 0.0110787 -0.0136016 0.00143035 -1.48409 6.88982 9.26342 
7808 488 3 1.008 0.03 17.2898 13.2243 3.60424 66.4722 13.2243 3.60424 1 0 0 0.00146966 -0.0308528 0.0144688 19.7997 -4.45766 -5.70617 
7798 488 2 12.01 0.11 17.2825 14.1726 3.09732 66.4648 14.1726 3.09732 1 0 0 0.00100401 0.00225799 -0.00267128 -3.89457 1.73264 28.0408 
1833 115 3 1.008 0.03 23.2341 10.2221 5.4292 -25.9483 10.2221 -142.118 -1 0 -3 0.0296789 0.0112703 -0.0215987 2.90843 -2.86478 -0.894757 
1834 115 3 1.008 0.03 22.3745 11.5058 6.28839 -26.8079 11.5058 -141.259 -1 0 -3 -0.00146824 -0.0234751 0.0107883 -2.50697 -9.7055 -9.35473 
1828 115 2 12.01 0.14 22.3055 10.7806 5.4494 -26.8769 10.7806 -142.098 -1 0 -3 0.00237994 -0.00350023 -0.0101075 -5.23211 27.3162 -7.81453 
7801 488 3 1.008 0.03 19.8736 14.6945 2.0999 69.056 14.6945 2.0999 1 0 0 0.019433 -0.0211977 0.000904512 -5.99387 -7.09879 20.5365 
7794 488 1 16 -0.4 18.4097 15.0382 3.45887 67.592 15.0382 3.45887 1 0 0 -0.00208272 -0.00368996 0.00449041 -32.699 14.9898 6.24596 
7796 488 2 12.01 0.14 19.6715 14.5048 3.17863 68.8538 14.5048 3.17863 1 0 0 0.000278035 0.00599461 0.00298989 9.9949 -23.9694 -28.4775 
7795 488 2 12.01 0.14 20.7672 15.2499 3.92618 69.9496 15.2499 3.92618 1 0 0 -0.00283052 0.00405899 0.00072336 2.84988 19.7733 5.63713 