ITEM: TIMESTEP
4000000
ITEM: NUMBER OF ATOMS
10479
ITEM: BOX BOUNDS pp pp pp
4.0882558190751794e-01 4.9591174418091420e+01
4.0882558190751794e-01 4.9591174418091420e+01
4.0882558190751794e-01 4.9591174418091420e+01
ITEM: ATOMS id mol type mass q x y z xu yu zu ix iy iz vx vy vz fx fy fz 
2164 136 2 12.01 0.14 4.58449 6.24926 6.36096 102.949 6.24926 55.5433 2 0 1 0.00302941 -0.00209269 0.00682106 -12.8686 -14.4337 40.2575 
2163 136 2 12.01 0.14 4.44668 4.70458 6.26165 102.811 4.70458 55.444 2 0 1 0.00367478 0.00396579 0.00159144 -22.5388 -13.258 13.0147 
2170 136 3 1.008 0.03 4.57968 6.7039 5.36207 102.944 6.7039 54.5444 2 0 1 0.00802768 0.0121743 -0.00021188 7.18087 4.60655 7.71524 
2168 136 3 1.008 0.03 5.39735 4.16914 6.06182 103.762 4.16914 55.2442 2 0 1 -0.0013732 -0.000997163 0.00554348 -7.24875 13.1012 6.68015 
2169 136 3 1.008 0.03 5.51528 6.38405 6.95741 103.88 6.38405 56.1398 2 0 1 -0.0107812 -0.00198685 -0.0292709 -7.46451 8.11206 -19.9993 
2167 136 3 1.008 0.03 3.96961 4.29558 7.20934 102.334 4.29558 56.3917 2 0 1 -0.0132645 -0.0130025 0.00548075 20.3021 14.5396 -31.0289 
2161 136 1 16 -0.4 3.54533 4.35261 5.21372 101.91 4.35261 54.3961 2 0 1 0.00540218 0.00264152 -0.0062987 9.09017 9.77788 9.8916 
8465 530 1 16 -0.4 5.72308 6.45727 3.03763 104.088 252.369 3.03763 2 5 0 -0.000581801 0.000356024 0.00579022 33.3816 -24.3959 17.0814 
2165 136 2 12.01 0.11 3.37095 2.96701 5.21388 101.736 2.96701 54.3962 2 0 1 -0.00160311 0.00213274 0.00156958 -9.2512 -8.86128 -31.1621 
2173 136 3 1.008 0.03 4.29453 2.47607 4.98513 102.659 2.47607 54.1675 2 0 1 -0.0109939 0.00813281 -0.0121557 13.7019 -3.94944 4.33757 
8468 530 2 12.01 0.14 4.01961 6.61173 1.41156 102.384 252.523 1.41156 2 5 0 -8.66281e-05 0.00333618 0.0032167 -34.1802 23.0515 26.4694 
8466 530 1 16 -0.4 4.35886 7.70969 0.603814 102.724 253.621 0.603814 2 5 0 0.000234923 -9.94405e-05 -0.0043669 13.1474 10.763 -8.39047 
8467 530 2 12.01 0.14 5.22224 5.86024 1.8489 103.587 251.772 1.8489 2 5 0 -0.000707236 0.00228407 -0.00282877 -19.4215 -22.701 11.7849 
8474 530 3 1.008 0.03 3.43679 6.92339 2.30028 101.801 252.835 2.30028 2 5 0 -0.0164511 0.0179556 -0.00567831 7.19571 0.0651361 -8.88138 
8475 530 3 1.008 0.03 7.09215 6.02773 4.62964 105.457 251.939 4.62964 2 5 0 -0.00820637 -0.0118286 -0.0024515 0.46099 -0.175523 -3.14519 
8471 530 3 1.008 0.03 5.796 5.79191 0.939355 104.161 251.704 0.939355 2 5 0 -0.0100567 -0.00123821 -0.0163232 23.6976 -4.03274 4.57898 
8154 510 3 1.008 0.03 1.98592 4.74903 3.08857 1.98592 53.9314 3.08857 0 1 0 0.00999598 0.0150649 -0.00478554 -12.6476 -4.56257 12.6128 
8469 530 2 12.01 0.11 6.70426 5.57813 3.71113 105.069 251.49 3.71113 2 5 0 0.00210719 -0.000514508 -0.00161293 -11.6707 18.4649 -43.5335 
8148 510 2 12.01 0.14 1.08022 4.15532 2.86216 1.08022 53.3377 2.86216 0 1 0 7.70183e-05 0.00542934 0.00279325 17.6889 32.5655 -31.7329 
8477 530 3 1.008 0.03 7.51797 5.46365 2.95005 105.883 251.375 2.95005 2 5 0 0.00759044 0.000831578 0.0129105 -7.64781 -1.01701 20.7782 
8476 530 3 1.008 0.03 6.30586 4.57541 3.93645 104.671 250.487 3.93645 2 5 0 0.0119583 -0.00164192 0.0209797 1.51071 8.26503 -1.01424 
2172 136 3 1.008 0.03 2.7565 2.68499 4.35517 101.121 2.68499 53.5375 2 0 1 0.00167807 0.0342699 -0.00357197 -0.929427 3.36098 11.7193 
2162 136 1 16 -0.4 3.54073 6.75649 7.26472 101.905 6.75649 56.4471 2 0 1 -0.00586291 -0.00692299 -0.0017404 35.3419 -8.74597 -10.5113 
8473 530 3 1.008 0.03 3.33883 5.99471 0.871516 101.704 251.906 0.871516 2 5 0 0.00141673 0.0228185 0.015415 -4.10309 -10.7988 -10.8812 
3013 189 2 12.01 0.11 7.53984 2.50126 6.85519 7.53984 -46.6811 56.0375 0 -1 1 -0.00713772 0.00137591 -0.00841876 -2.91632 -28.6398 3.88483 
9644 604 8 19 -0.16 3.52283 0.455288 4.45883 3.52283 49.6376 4.45883 0 1 0 -0.00100042 -0.00475674 -0.0021571 22.4479 -21.6805 -8.3622 
8151 510 3 1.008 0.03 0.752183 2.60306 1.55647 0.752183 51.7854 1.55647 0 1 0 -0.0246599 -0.01118 0.00804199 -21.6391 -19.6373 -18.7975 
3021 189 3 1.008 0.03 7.45848 1.95148 5.94182 7.45848 -47.2309 55.1242 0 -1 1 -0.00196421 0.027425 0.00699658 -3.80603 -15.4824 -9.16343 
8572 536 3 1.008 0.03 0.928269 0.882567 3.69323 0.928269 50.0649 -94.6715 0 1 -2 -0.0322086 -0.0297947 0.00650738 -24.912 -2.14899 -8.2442 
8384 524 3 1.008 0.03 6.58708 0.556473 1.29468 104.952 98.9212 -47.8877 2 2 -1 0.00134972 -0.000908246 0.00854394 9.05975 -13.9706 12.3745 
8159 510 3 1.008 0.03 0.470222 6.4513 3.64122 0.470222 55.6336 3.64122 0 1 0 0.0272597 0.00501181 -0.00578166 3.05812 13.3273 8.50308 
7272 455 3 1.008 0.03 7.44491 8.51811 3.05887 56.6273 8.51811 52.2412 1 0 1 0.021362 0.00181615 0.00253299 -6.86649 12.9006 5.31098 
9643 604 8 19 -0.16 5.03683 0.460992 5.83826 5.03683 49.6433 5.83826 0 1 0 -0.000262413 -0.00477161 -0.00405246 26.7362 29.3699 42.5962 
3009 189 1 16 -0.4 7.97743 3.75563 6.4881 7.97743 -45.4267 55.6705 0 -1 1 -0.000944413 -0.000457582 0.000236036 8.2974 21.9387 -1.50381 
8374 524 2 12.01 0.11 5.68927 1.06885 1.03723 104.054 99.4336 -48.1451 2 2 -1 0.00205168 -0.000312742 0.000635921 -12.2921 48.4891 -23.9594 
8383 524 3 1.008 0.03 5.0665 1.421 1.87745 103.431 99.7857 -47.3049 2 2 -1 0.0132022 -0.00209681 -0.00282277 10.253 -11.8104 1.0876 
2166 136 2 12.01 0.11 2.31575 6.93399 6.63629 100.68 6.93399 55.8186 2 0 1 0.000982634 0.00598011 4.52366e-05 2.00092 0.259018 3.36499 
8152 510 3 1.008 0.03 2.26876 2.39716 2.35024 2.26876 51.5795 2.35024 0 1 0 0.0117638 -0.00441945 0.0206858 4.21873 -8.302 6.16574 
8145 510 1 16 -0.4 2.33084 3.84266 0.878393 2.33084 53.025 0.878393 0 1 0 -0.000783554 0.00258877 -0.00267396 -19.9024 -9.59969 30.9218 
2171 136 3 1.008 0.03 2.919 2.54506 6.09235 101.284 2.54506 55.2747 2 0 1 -0.00635519 0.028736 -0.0319292 -2.46475 -1.67944 11.6363 
8472 530 3 1.008 0.03 4.85902 4.85749 2.14773 103.224 250.769 2.14773 2 5 0 -0.0139234 -0.0246456 0.0125286 6.47647 6.94987 -8.55559 
8382 524 3 1.008 0.03 6.0755 2.03533 0.603915 104.44 100.4 -48.5784 2 2 -1 0.0231262 0.0275324 0.000928342 -11.1177 -23.3238 3.98304 
8147 510 2 12.01 0.14 1.59799 3.1041 1.9035 1.59799 52.2865 1.9035 0 1 0 -0.000843813 0.0023884 0.0110779 23.2874 42.2592 -18.6551 
5772 361 3 1.008 0.03 0.907693 3.68638 6.32997 99.2724 52.8687 -92.0347 2 1 -2 0.0258241 0.00600929 -0.00437622 -9.49324 1.12148 -0.675138 
2175 136 3 1.008 0.03 2.2239 6.19352 5.8875 100.589 6.19352 55.0698 2 0 1 -0.0284209 0.0117485 0.00852605 -17.4053 -16.9828 -9.76014 
8153 510 3 1.008 0.03 0.643658 3.69889 3.70428 0.643658 52.8812 3.70428 0 1 0 -0.0104369 0.0113972 -0.0162957 -6.84582 -8.07642 23.9955 
2174 136 3 1.008 0.03 2.35548 7.8373 6.07397 100.72 7.8373 55.2563 2 0 1 0.0204281 0.0169517 -0.0219855 -5.35012 18.8565 -2.9952 
3020 189 3 1.008 0.03 6.58157 2.37163 7.33152 6.58157 -46.8107 56.5139 0 -1 1 0.00681828 -0.00842372 0.0177347 -8.974 14.4622 4.77995 
2176 136 3 1.008 0.03 1.49028 6.90734 7.35411 99.855 6.90734 56.5365 2 0 1 -0.0297971 -0.00357823 -0.0194301 0.40992 2.09952 -4.49231 
831 52 3 1.008 0.03 15.0885 1.26966 5.65775 15.0885 99.6344 -43.5246 0 2 -1 -0.017252 0.0113139 -0.00197689 -14.5874 -1.96789 2.49056 
3017 189 3 1.008 0.03 9.59763 5.59379 6.34545 9.59763 -43.5886 55.5278 0 -1 1 -0.0130837 -0.00454518 -0.0268253 -2.12771 2.35126 13.6066 
3023 189 3 1.008 0.03 10.1288 7.53894 4.99534 10.1288 -41.6434 54.1777 0 -1 1 0.0044915 -0.0317368 -0.000557782 -11.7402 18.5452 17.2921 
4994 313 1 16 -0.4 12.5589 3.05917 1.71978 -85.8058 3.05917 1.71978 -2 0 0 0.0014509 -0.000611898 0.00409921 -22.0365 10.2445 -39.829 
4285 268 3 1.008 0.03 14.1296 1.0124 2.28132 161.677 -48.17 -46.901 3 -1 -1 0.0225691 0.0043399 -0.00863838 14.0673 -14.179 -13.371 
1494 94 2 12.01 0.11 13.898 5.83016 2.80162 112.263 104.195 51.984 2 2 1 0.000707199 -0.0014596 -0.00423336 -6.19348 35.8761 17.4801 
1502 94 3 1.008 0.03 12.8457 5.67447 3.03327 111.21 104.039 52.2156 2 2 1 0.0252821 -0.0194189 -0.0103746 -1.07413 -2.65421 -7.63243 
1490 94 1 16 -0.4 14.6168 5.02204 3.66264 112.981 103.387 52.845 2 2 1 0.00013675 0.00237702 0.00438345 33.4797 -35.1361 2.60292 
1492 94 2 12.01 0.14 15.9313 4.57742 3.18843 114.296 102.942 52.3708 2 2 1 -0.00314013 -0.00477194 0.00479305 -13.008 27.6617 15.7147 
1497 94 3 1.008 0.03 16.1956 4.95996 2.20647 114.56 103.325 51.3888 2 2 1 -0.00766663 0.0136322 0.00260341 -3.64117 -1.91448 -5.33374 
1496 94 3 1.008 0.03 16.6694 4.88391 5.13904 115.034 103.249 54.3214 2 2 1 0.000684638 0.00638108 0.00886171 -5.22525 -13.3938 32.465 
1503 94 3 1.008 0.03 14.0941 6.87928 3.15105 112.459 105.244 52.3334 2 2 1 0.0404068 0.0144491 -0.0121533 -0.198748 -18.3301 -17.9155 
1504 94 3 1.008 0.03 14.0956 5.67095 1.74655 112.46 104.036 50.9289 2 2 1 0.00237436 -0.0241133 0.00655599 -0.628109 0.937413 -4.40531 
4998 313 2 12.01 0.11 11.5622 2.98256 2.71789 -86.8025 2.98256 2.71789 -2 0 0 0.00284358 -0.00153925 0.00314228 21.4638 -26.6509 3.64759 
5008 313 3 1.008 0.03 10.9081 3.84586 2.70543 -87.4566 3.84586 2.70543 -2 0 0 -0.00174792 -0.00239069 0.0230899 -0.874951 4.78388 6.68932 
3022 189 3 1.008 0.03 10.7715 7.26596 3.40038 10.7715 -41.9164 52.5827 0 -1 1 0.00244005 -0.00371232 -0.00792466 -0.678123 -0.67361 10.8972 
5007 313 3 1.008 0.03 12.1317 2.82075 3.66514 -86.233 2.82075 3.66514 -2 0 0 0.0109731 -0.00782625 0.00116389 -18.6159 9.82076 -9.98902 
832 52 3 1.008 0.03 13.5892 1.02805 4.57876 13.5892 99.3927 -44.6036 0 2 -1 -0.00826167 -0.0134911 0.00315061 25.2023 19.2005 20.6353 
5006 313 3 1.008 0.03 10.9847 2.07293 2.51113 -87.38 2.07293 2.51113 -2 0 0 0.00704781 -0.010441 -0.0358729 -2.94057 9.65507 9.51067 
822 52 2 12.01 0.11 14.0707 1.63338 5.41938 14.0707 99.9981 -43.763 0 2 -1 -0.00561838 -0.00417955 0.00871544 -6.47865 -47.5453 -36.9082 
3014 189 2 12.01 0.11 10.6783 6.85662 4.41691 10.6783 -42.3257 53.5993 0 -1 1 0.00423117 -0.00182177 -0.00601141 -7.41743 -42.0673 -31.426 
830 52 3 1.008 0.03 14.1822 2.61782 5.07202 14.1822 100.983 -44.1103 0 2 -1 0.0121211 0.0290026 -0.00856565 4.64573 25.035 -10.2459 
3010 189 1 16 -0.4 9.99344 5.57285 4.34177 9.99344 -43.6095 53.5241 0 -1 1 -0.00122982 -0.000896991 -0.00925769 11.8071 2.36354 26.8342 
3024 189 3 1.008 0.03 11.6736 6.72525 4.80168 11.6736 -42.4571 53.984 0 -1 1 -0.000887616 -0.000899103 -0.00737413 8.82745 1.57771 6.95177 
1498 94 3 1.008 0.03 16.0127 3.47865 3.16881 114.377 101.843 52.3512 2 2 1 0.0118587 -0.0067207 0.0246518 -5.94221 7.41299 -0.499249 
1539 97 2 12.01 0.14 10.5639 6.7504 0.676091 59.7462 -42.432 -48.5063 1 -1 -1 0.00183643 0.00813089 0.00413695 -32.8153 5.9324 -9.82906 
1544 97 3 1.008 0.03 10.2745 6.17133 1.53261 59.4569 -43.011 -47.6497 1 -1 -1 -0.0184875 -0.00147465 0.0136632 3.70202 -7.03237 10.1471 
1549 97 3 1.008 0.03 12.6815 8.26925 1.71619 61.8638 -40.9131 -47.4662 1 -1 -1 0.0075826 -0.014959 0.019297 -4.07161 -4.564 -4.27749 
5003 313 3 1.008 0.03 8.62592 1.43658 0.418909 -89.7388 1.43658 0.418909 -2 0 0 -0.00464666 0.00547047 0.0253508 7.55448 -0.39957 6.72233 
3012 189 2 12.01 0.14 9.96273 4.87597 5.63384 9.96273 -44.3064 54.8162 0 -1 1 0.000423428 -0.00742316 0.00552817 -29.5607 24.3904 -38.8033 
820 52 2 12.01 0.14 12.2369 0.602572 6.60838 12.2369 98.9673 -42.574 0 2 -1 -0.0050156 -0.00792793 0.000383918 7.59042 -12.7767 -13.7028 
3011 189 2 12.01 0.14 9.1028 3.62974 5.61831 9.1028 -45.5526 54.8007 0 -1 1 -0.00170494 -0.00208042 -0.00089933 1.16399 -3.9815 -5.40859 
3015 189 3 1.008 0.03 9.73739 2.75646 5.82398 9.73739 -46.4259 55.0063 0 -1 1 0.00495202 -0.00647696 0.0268869 -3.27092 3.68456 7.05843 
826 52 3 1.008 0.03 11.3791 0.8442 7.23793 11.3791 99.2089 -41.9444 0 2 -1 0.00660121 0.00959921 -0.00642425 1.66937 7.54693 -1.78144 
3018 189 3 1.008 0.03 10.8697 4.4884 5.94562 10.8697 -44.6939 55.128 0 -1 1 0.0186857 -0.012764 -0.00263799 42.6995 3.09927 8.44883 
3016 189 3 1.008 0.03 8.79 3.42583 4.60872 8.79 -45.7565 53.7911 0 -1 1 -0.0242208 -0.0129556 0.00389806 -8.13233 1.36492 -8.51464 
818 52 1 16 -0.4 13.1619 1.67745 6.46574 13.1619 100.042 -42.7166 0 2 -1 -0.0014975 0.000210663 -0.00652146 -18.3415 11.929 26.7977 
8334 521 3 1.008 0.03 16.1776 7.62436 1.12492 114.542 56.8067 50.3073 2 1 1 -0.0204776 -0.0355101 -0.0146909 1.10849 -1.56906 2.48934 
1537 97 1 16 -0.4 10.7187 8.07939 1.00928 59.9011 -41.103 -48.1731 1 -1 -1 0.0010408 0.00600929 -0.00250479 -9.59767 29.1863 10.2782 
5002 313 3 1.008 0.03 11.0629 3.77346 0.417587 -87.3018 3.77346 0.417587 -2 0 0 -0.0104045 0.0118821 -0.00335103 -12.4902 10.3462 -6.34219 
7808 488 3 1.008 0.03 24.1142 6.88712 0.64409 73.2965 6.88712 0.64409 1 0 0 -0.0216505 0.0206525 0.00622187 13.4598 -23.8183 -18.5653 
1489 94 1 16 -0.4 17.2375 6.53322 4.10452 115.602 104.898 53.2869 2 2 1 -0.00376932 0.000535771 0.000241074 -36.0204 -10.6728 -51.9632 
10286 647 7 12.01 0.35 24.7027 3.73946 4.35499 24.7027 52.9218 4.35499 0 1 0 -0.00431759 -0.00250917 -0.00110768 -15.0389 -4.91517 45.3817 
6859 429 3 1.008 0.03 21.5785 0.907253 4.06577 -27.6039 0.907253 200.795 -1 0 4 -0.00287855 -0.0104858 0.00911129 1.93548 8.52 2.77139 
7798 488 2 12.01 0.11 23.4014 7.65362 0.738995 72.5837 7.65362 0.738995 1 0 0 0.00668239 -0.00305038 -0.00244157 -57.5409 23.7441 11.4407 
1491 94 2 12.01 0.14 16.9805 5.13667 4.17828 115.345 103.501 53.3606 2 2 1 -0.00110947 0.00603871 -0.00440471 1.15887 0.4727 -29.4681 
1493 94 2 12.01 0.11 17.8512 7.06808 5.17265 116.216 105.433 54.355 2 2 1 0.00476192 0.00144434 -0.00763255 -3.60652 18.5355 39.6248 
1500 94 3 1.008 0.03 18.854 6.73615 5.16311 117.219 105.101 54.3455 2 2 1 0.0101302 -0.0373916 0.019137 21.3974 -7.12087 6.93015 
6857 429 3 1.008 0.03 17.747 0.586666 1.55875 -31.4353 0.586666 198.288 -1 0 4 -0.0230904 -6.05209e-05 -0.00778926 -19.8927 -13.2567 7.10505 
1495 94 3 1.008 0.03 17.8942 4.63632 3.91086 116.259 103.001 53.0932 2 2 1 0.00952573 -0.00395164 -0.00737466 11.1821 -5.07957 7.15473 
528 33 3 1.008 0.03 20.3689 4.92242 1.75602 118.734 4.92242 -47.4263 2 0 -1 0.00482713 -0.00397641 -0.00580071 7.23477 -10.2476 -9.77005 
6861 429 3 1.008 0.03 22.099 1.83633 2.62866 -27.0834 1.83633 199.358 -1 0 4 -0.00792642 0.0208128 -0.0229104 -8.1931 -4.579 -1.57432 
6849 429 1 16 -0.4 20.1237 1.03153 2.72546 -29.0586 1.03153 199.455 -1 0 4 -0.00279354 -0.00529274 0.000205741 -38.8967 19.4049 -29.8195 
7186 450 1 16 -0.4 18.046 1.97571 6.40707 18.046 51.1581 153.954 0 1 3 -0.00283034 -0.000230439 0.00275065 -16.6816 5.39951 6.9026 
7190 450 2 12.01 0.11 18.0899 1.08252 5.34545 18.0899 50.2649 152.892 0 1 3 0.00333292 0.00568234 -0.00347869 11.6533 5.71213 -22.7393 
10288 647 8 19 -0.16 23.5455 3.17998 4.02749 23.5455 52.3623 4.02749 0 1 0 0.00595153 -0.00199134 0.00674362 7.59093 -13.1728 1.39254 
6855 429 3 1.008 0.03 20.1897 2.18494 0.995211 -28.9927 2.18494 197.725 -1 0 4 -0.000969927 0.0070365 0.0229767 11.0437 1.84646 -8.73421 
7185 450 1 16 -0.4 19.8383 5.05793 7.20936 19.8383 54.2403 154.756 0 1 3 0.00246447 -0.00270876 0.00391759 -14.6565 -2.47327 -9.35176 
4955 310 3 1.008 0.03 21.747 6.81817 5.64877 70.9293 6.81817 5.64877 1 0 0 0.0270531 -0.0434493 0.00493253 -5.71488 -4.71684 20.0003 
4949 310 2 12.01 0.11 22.4656 6.78249 4.86375 71.6479 6.78249 4.86375 1 0 0 0.00104878 -0.000365665 0.00275198 22.5322 -26.8352 -44.8582 
4951 310 3 1.008 0.03 20.412 7.30408 3.57105 69.5944 7.30408 3.57105 1 0 0 0.0122491 0.00703195 0.0036489 18.016 20.6085 2.11836 
7188 450 2 12.01 0.14 19.1196 2.86075 6.35662 19.1196 52.0431 153.904 0 1 3 0.00324339 -0.00257852 0.00405413 12.4191 7.47733 13.6239 
7193 450 3 1.008 0.03 19.2019 3.46042 5.4618 19.2019 52.6428 153.009 0 1 3 -0.00113495 0.0110621 0.0117613 -1.05344 -10.934 -15.6545 
7199 450 3 1.008 0.03 18.0083 1.65848 4.41126 18.0083 50.8408 151.958 0 1 3 -0.0442838 0.000301886 0.00816532 -4.35559 -6.74972 4.16918 
4957 310 3 1.008 0.03 23.4926 6.64066 5.14656 72.675 6.64066 5.14656 1 0 0 0.0209679 0.0229012 -0.0232955 4.44953 4.14189 21.5834 
4945 310 1 16 -0.4 22.4457 7.95017 4.07334 71.6281 7.95017 4.07334 1 0 0 -0.0047963 -0.00342234 0.000118665 -45.8939 24.0915 -31.9097 
6851 429 2 12.01 0.14 19.7236 1.27385 1.33315 -29.4587 1.27385 198.063 -1 0 4 -0.00375687 -0.00491685 0.00267304 10.6346 -20.0387 55.0594 
6853 429 2 12.01 0.11 21.4746 1.00316 2.98805 -27.7077 1.00316 199.717 -1 0 4 -0.00173707 0.00323871 -0.00290215 13.6914 6.6427 18.1382 
6852 429 2 12.01 0.14 18.2074 1.51745 1.34608 -30.975 1.51745 198.075 -1 0 4 -0.00755768 -0.00499354 -0.0015313 23.0507 34.9248 9.699 
4947 310 2 12.01 0.14 21.0199 8.24507 3.73147 70.2023 8.24507 3.73147 1 0 0 -0.00155465 0.00110427 -0.00590708 -7.50944 -29.0835 15.9529 
4956 310 3 1.008 0.03 22.3703 5.85976 4.22759 71.5526 5.85976 4.22759 1 0 0 -0.00267983 -0.0108468 -0.0102475 -13.1418 20.2524 13.0561 
6858 429 3 1.008 0.03 17.9332 2.33557 2.07556 -31.2492 2.33557 198.805 -1 0 4 0.0300993 -0.00284143 0.00647102 5.93565 -26.4047 -10.6821 
7194 450 3 1.008 0.03 20.0098 2.19448 6.48027 20.0098 51.3768 154.027 0 1 3 -0.00185911 0.00823528 -0.00638154 -4.21524 25.8931 2.29316 
7806 488 3 1.008 0.03 22.5174 7.2108 1.28817 71.6997 7.2108 1.28817 1 0 0 -0.0021431 0.0235675 -0.0035542 34.3256 16.4556 -3.41838 
1499 94 3 1.008 0.03 17.3426 6.77214 6.10933 115.707 105.137 55.2917 2 2 1 -0.00518024 0.0169538 0.000159088 7.09702 5.1015 -6.03523 
526 33 3 1.008 0.03 19.0833 5.75064 1.04235 117.448 5.75064 -48.14 2 0 -1 -0.0139238 -0.0118655 0.0168617 -2.44148 -1.52932 -12.6967 
7200 450 3 1.008 0.03 19.0707 0.590809 5.30005 19.0707 49.7732 152.847 0 1 3 0.0185977 0.00209794 -0.010932 -8.76817 -7.45512 1.22451 
518 33 2 12.01 0.11 20.0177 5.25191 0.772632 118.382 5.25191 -48.4097 2 0 -1 0.000608467 -0.000586069 0.00378753 23.6031 46.1819 -12.0242 
1501 94 3 1.008 0.03 17.8462 8.16013 5.08983 116.211 106.525 54.2722 2 2 1 0.0257832 -0.00761686 -0.0139762 0.345212 -3.37441 1.42876 
7187 450 2 12.01 0.14 18.9054 3.95777 7.41639 18.9054 53.1401 154.963 0 1 3 0.000470649 -0.00745146 0.00168142 20.9563 0.161834 48.3633 
10287 647 8 19 -0.16 24.4211 4.57045 5.349 24.4211 53.7528 5.349 0 1 0 -0.00123385 -0.000218606 -0.00967169 -5.63912 6.54953 -9.71165 
8729 546 3 1.008 0.03 1.26973 15.7494 6.81008 50.4521 -82.6153 55.9924 1 -2 1 -0.00310389 -0.0112082 -0.00756066 -12.4509 -2.53384 9.70063 
450 29 1 16 -0.4 3.7905 13.395 0.823908 -45.3918 13.395 99.1886 -1 0 2 0.000177504 -0.000659518 0.00206616 15.3538 0.166678 4.94374 
8479 530 3 1.008 0.03 2.92749 9.12157 0.978482 101.292 255.033 0.978482 2 5 0 0.013372 0.00626203 0.0126301 -5.7635 10.4213 4.24075 
7995 500 3 1.008 0.03 5.69291 15.6051 2.13052 104.058 64.7874 51.3129 2 1 1 -0.0159422 -0.0365921 -0.0142542 -18.9602 -0.129683 7.61317 
7271 455 3 1.008 0.03 7.88123 8.85833 4.67468 57.0636 8.85833 53.857 1 0 1 -0.0265589 -0.0354823 -0.039299 1.20699 1.5038 9.29269 
454 29 2 12.01 0.11 2.42636 13.3523 1.17197 -46.756 13.3523 99.5367 -1 0 2 0.000215191 -0.0046977 0.000277693 8.42094 1.04331 73.1137 
1189 75 2 12.01 0.11 8.05389 10.333 7.38094 8.05389 10.333 7.38094 0 0 0 0.00613269 0.00935809 0.000111494 21.4181 31.3328 26.1724 
456 29 3 1.008 0.03 6.40246 12.4174 1.19954 -42.7799 12.4174 99.5642 -1 0 2 -0.0160977 -0.000354855 0.0212728 -12.78 -2.3485 -0.853261 
458 29 3 1.008 0.03 3.98175 11.3777 1.24456 -45.2006 11.3777 99.6093 -1 0 2 0.00471094 0.00436823 0.00734233 0.113687 4.90791 -5.66073 
463 29 3 1.008 0.03 2.17393 12.8578 2.17765 -47.0084 12.8578 100.542 -1 0 2 -0.0225749 0.0055582 0.0037377 16.0327 6.59854 -37.9639 
7274 455 3 1.008 0.03 8.50649 10.7883 2.31176 57.6888 10.7883 51.4941 1 0 1 0.00653243 -0.0239155 0.00762418 5.50515 -23.5303 22.0144 
7996 500 3 1.008 0.03 7.2916 15.1568 1.76938 105.656 64.3391 50.9517 2 1 1 -0.00423144 0.0234376 -0.0047152 5.14648 -6.80236 -9.59439 
7267 455 2 12.01 0.14 7.61773 9.36105 3.75753 56.8001 9.36105 52.9399 1 0 1 -0.00500985 0.00196948 -0.00385054 -22.5574 -6.94258 -18.6657 
7325 458 3 1.008 0.03 6.8075 14.5795 4.10845 55.9899 -34.6028 -45.0739 1 -1 -1 -0.0207021 0.00329062 0.0120191 -2.5354 9.40756 1.36894 
7317 458 2 12.01 0.11 7.10486 14.1145 5.03812 56.2872 -35.0678 -44.1442 1 -1 -1 0.00422096 3.36855e-05 0.00812052 0.247141 -52.5776 -24.035 
7324 458 3 1.008 0.03 6.41482 13.2233 5.15572 55.5972 -35.959 -44.0266 1 -1 -1 0.00709603 -0.0163397 -0.016002 23.018 19.781 -4.7168 
7265 455 1 16 -0.4 6.45413 10.2348 3.90271 55.6365 10.2348 53.0851 1 0 1 0.000579724 0.000456083 -0.0071034 -8.68114 -25.0059 7.77189 
7269 455 2 12.01 0.11 5.28317 9.55605 4.47131 54.4655 9.55605 53.6537 1 0 1 -0.0053854 -0.000662717 -0.00251347 11.8346 29.2828 -21.7274 
7276 455 3 1.008 0.03 5.58549 9.16285 5.43456 54.7678 9.16285 54.6169 1 0 1 -0.00875915 0.0164721 -0.00341857 -5.97519 -1.19524 6.83504 
7275 455 3 1.008 0.03 5.01671 8.71198 3.82342 54.1991 8.71198 53.0058 1 0 1 0.00687635 -0.00546077 0.00280495 -3.2598 5.34964 3.77486 
7277 455 3 1.008 0.03 4.39513 10.2691 4.5691 53.5775 10.2691 53.7515 1 0 1 -0.0200712 -0.0195929 -0.0168394 28.5386 -25.7962 -5.3535 
7313 458 1 16 -0.4 6.97469 14.8549 6.17747 56.157 -34.3275 -43.0049 1 -1 -1 0.00145238 0.00155242 0.00854434 -5.43041 48.9628 32.7823 
7315 458 2 12.01 0.14 7.51183 16.2189 6.16108 56.6942 -32.9634 -43.0213 1 -1 -1 -0.000920164 -0.00358901 0.00554323 -22.7792 -23.7185 -13.6798 
7319 458 3 1.008 0.03 7.1934 16.7762 5.2626 56.3757 -32.4061 -43.9197 1 -1 -1 -0.0167676 0.0236342 -0.0028514 6.32856 -6.08789 5.21499 
7323 458 3 1.008 0.03 8.14547 13.758 4.91619 57.3278 -35.4244 -44.2662 1 -1 -1 0.000255595 0.0163195 -0.0277527 -12.1992 1.54584 1.8737 
1195 75 3 1.008 0.03 8.59536 11.1052 6.81151 8.59536 11.1052 6.81151 0 0 0 -0.000226978 -0.01215 0.0319619 -11.7893 -6.59965 -5.91171 
203 13 3 1.008 0.03 4.12145 11.4601 6.27518 102.486 -37.7223 6.27518 2 -1 0 0.011879 -0.000491425 -0.000895561 -6.20812 39.6483 12.0778 
464 29 3 1.008 0.03 2.15429 14.3654 1.4109 -47.0281 14.3654 99.7756 -1 0 2 0.00911816 0.0070741 0.0251425 -7.53069 10.5347 -8.94685 
2202 138 3 1.008 0.03 4.41016 16.6128 3.94702 53.5925 65.7952 -94.4177 1 1 -2 -0.0020358 0.00687299 0.0225035 1.63038 -2.68765 -2.36486 
7997 500 3 1.008 0.03 7.08874 16.5746 2.6335 105.453 65.757 51.8158 2 1 1 -0.00426558 0.00661159 0.0118367 -4.1513 8.16353 8.67621 
1196 75 3 1.008 0.03 7.83228 9.4641 6.89005 7.83228 9.4641 6.89005 0 0 0 -0.00559857 0.000921834 0.0104079 -2.05243 -34.8226 -32.6564 
197 13 2 12.01 0.11 3.85111 12.5326 6.5752 102.216 -36.6498 6.5752 2 -1 0 0.00348911 0.000806948 -0.0094944 13.1403 -50.43 -18.2409 
7989 500 2 12.01 0.11 6.63349 16.0071 1.83994 104.998 65.1894 51.0223 2 1 1 -0.0016343 -0.00141578 0.00913483 24.3897 -9.63165 8.72242 
7320 458 3 1.008 0.03 7.05147 16.7563 7.00585 56.2338 -32.426 -42.1765 1 -1 -1 0.0102433 -0.00835376 0.0261092 5.89522 -4.53872 -4.60905 
204 13 3 1.008 0.03 3.28149 12.9551 5.76533 101.646 -36.2273 5.76533 2 -1 0 0.001129 -0.00954358 -0.0045506 8.75413 8.73694 -13.9078 
205 13 3 1.008 0.03 4.79951 13.0752 6.79553 103.164 -36.1072 6.79553 2 -1 0 -0.00644035 0.00878328 0.0169254 -19.6451 -0.100881 1.2155 
7985 500 1 16 -0.4 6.59934 16.7734 0.67923 104.964 65.9558 49.8616 2 1 1 -0.00773304 0.00429933 0.00434982 -2.03216 14.6445 -5.43931 
8724 546 2 12.01 0.14 0.497374 16.2504 7.43015 49.6797 -82.1143 56.6125 1 -2 1 0.00858906 0.00497881 -0.00251507 18.353 17.0353 -13.2294 
462 29 3 1.008 0.03 1.83321 12.9554 0.423275 -47.3491 12.9554 98.788 -1 0 2 -0.035635 -0.0262714 0.0155426 -24.011 -11.6316 -28.2091 
452 29 2 12.01 0.14 4.29825 12.1164 0.490628 -44.8841 12.1164 98.8553 -1 0 2 0.00121918 -0.00420122 0.00473282 4.74089 -24.9125 -21.491 
8322 521 1 16 -0.4 15.721 9.58497 0.662811 114.086 58.7673 49.8452 2 1 1 -0.00255766 0.00116052 0.00979596 4.80538 11.371 2.30014 
7273 455 3 1.008 0.03 9.5926 9.45308 2.89456 58.775 9.45308 52.0769 1 0 1 0.0134103 0.0199359 0.00868589 0.154479 5.93074 4.09518 
8336 521 3 1.008 0.03 15.6723 8.7026 2.46019 114.037 57.885 51.6425 2 1 1 -0.0202317 -0.0209936 0.0189981 12.5019 -6.16555 -0.478513 
7279 455 3 1.008 0.03 11.0443 11.2712 3.66867 60.2267 11.2712 52.851 1 0 1 -0.0138867 0.00104327 -0.00307345 4.21755 10.9193 2.92122 
4761 298 3 1.008 0.03 11.001 15.5681 1.3009 60.1834 15.5681 1.3009 1 0 0 -0.00100766 -0.00765681 0.0115097 -2.22877 30.9296 14.5678 
4754 298 1 16 -0.4 12.6631 14.3662 1.05132 61.8455 14.3662 1.05132 1 0 0 0.000423179 -0.00286856 0.00148004 -19.8375 -13.4971 -15.9148 
7266 455 1 16 -0.4 9.16251 10.9996 4.24163 58.3449 10.9996 53.424 1 0 1 -0.000627207 0.00721529 -0.0041847 4.30862 12.3642 19.0648 
7268 455 2 12.01 0.14 8.79936 10.1444 3.20357 57.9817 10.1444 52.3859 1 0 1 -0.00114614 -0.00361269 0.0015875 -14.6091 17.1021 -32.1283 
7314 458 1 16 -0.4 9.79078 15.6345 5.19672 58.9731 -33.5479 -43.9856 1 -1 -1 0.00351852 0.00298427 0.00153062 -43.9782 12.6686 19.5908 
7316 458 2 12.01 0.14 9.01984 16.1446 6.34988 58.2022 -33.0377 -42.8325 1 -1 -1 0.00474293 -0.00165065 0.00362576 21.5933 -16.4224 -43.3999 
7322 458 3 1.008 0.03 9.20841 15.4622 7.16251 58.3908 -33.7202 -42.0198 1 -1 -1 -0.0064899 0.00795674 0.00251203 1.01387 2.48618 14.9611 
7318 458 2 12.01 0.11 11.0979 15.5535 5.6305 60.2802 -33.6289 -43.5519 1 -1 -1 0.000575267 0.00638355 -0.00158494 8.27514 9.56679 36.6791 
8330 521 3 1.008 0.03 15.0712 11.1044 1.94758 113.436 60.2868 51.1299 2 1 1 -0.00805704 0.000636724 -0.0209656 8.50222 6.9574 -36.3394 
2566 161 2 12.01 0.11 13.7095 12.3864 7.35717 -35.4728 -85.9783 7.35717 -1 -2 0 0.00165729 -0.0185584 0.00192335 -47.7064 13.405 14.6986 
7270 455 2 12.01 0.11 10.1839 11.9091 3.90345 59.3662 11.9091 53.0858 1 0 1 -0.00921026 -0.000440402 0.00468723 7.1618 -8.42291 -6.42572 
7280 455 3 1.008 0.03 9.93403 12.4824 3.01355 59.1164 12.4824 52.1959 1 0 1 0.00892311 0.0194285 0.0412429 -1.92383 0.119138 0.110959 
7278 455 3 1.008 0.03 10.4092 12.6261 4.70443 59.5916 12.6261 53.8868 1 0 1 -0.0446728 0.03343 0.0245397 0.423307 -7.43035 -1.05525 
2620 164 3 1.008 0.03 14.2916 16.5686 5.68129 -34.8908 65.751 -43.5011 -1 1 -1 -0.0176547 -0.0108285 0.00638818 17.0515 12.4637 -12.176 
2564 161 2 12.01 0.14 15.2576 11.5809 5.82071 -33.9247 -86.7838 5.82071 -1 -2 0 -0.00552031 -0.00453544 0.00627422 -6.54386 -15.3226 23.7591 
2569 161 3 1.008 0.03 15.4545 11.7254 4.81326 -33.7278 -86.6393 4.81326 -1 -2 0 -0.0285655 0.0156843 0.0192422 6.54502 -0.688221 -36.6173 
2563 161 2 12.01 0.14 16.5238 11.9938 6.54223 -32.6585 -86.3709 6.54223 -1 -2 0 0.00266602 -0.00654076 0.00106917 48.4419 23.3985 28.4715 
4766 298 3 1.008 0.03 12.4076 13.9842 3.13413 61.5899 13.9842 3.13413 1 0 0 0.000114543 -0.00386145 -0.0142701 1.6629 -3.35468 -8.88945 
4758 298 2 12.01 0.11 13.0263 14.4845 2.37576 62.2087 14.4845 2.37576 1 0 0 0.00577899 0.00861666 -2.67834e-05 -6.8146 -6.35571 13.4288 
4768 298 3 1.008 0.03 12.9969 15.5107 2.56848 62.1793 15.5107 2.56848 1 0 0 0.0106341 0.0227541 -0.014093 0.213277 30.3869 12.5893 
1541 97 2 12.01 0.11 12.0164 8.63923 0.928418 61.1987 -40.5431 -48.2539 1 -1 -1 0.000458916 0.00434888 -0.010847 -4.36531 26.9901 35.4722 
4767 298 3 1.008 0.03 14.0295 14.2012 2.48919 63.2118 14.2012 2.48919 1 0 0 0.00596774 0.0040499 -0.0112709 26.0347 -10.7028 4.56649 
2567 161 3 1.008 0.03 16.6288 13.1213 6.63845 -32.5536 -85.2434 6.63845 -1 -2 0 0.0140236 -0.00403162 -0.00133467 -5.9509 -30.1745 -7.12631 
2570 161 3 1.008 0.03 15.1058 10.4913 5.96554 -34.0766 -87.8734 5.96554 -1 -2 0 0.0387351 0.00200927 -0.00116855 -8.25901 13.8904 -1.24051 
7326 458 3 1.008 0.03 11.8456 15.3552 4.92554 61.0279 -33.8272 -44.2568 1 -1 -1 -0.00437895 -0.00470447 0.00642933 13.6981 -7.90713 -25.1622 
2562 161 1 16 -0.4 14.145 12.4393 6.02492 -35.0373 -85.9254 6.02492 -1 -2 0 0.00747707 -0.00168974 0.00498037 2.56044 -11.698 1.4967 
8324 521 2 12.01 0.14 15.8355 10.9561 1.11932 114.2 60.1385 50.3017 2 1 1 -0.00104255 -0.00466935 0.0030205 -8.41283 -51.4245 17.1729 
4756 298 2 12.01 0.14 11.2656 14.6198 0.956194 60.448 14.6198 0.956194 1 0 0 -0.0077693 -0.000798875 -0.00583709 -9.97118 -8.96645 -11.3506 
1548 97 3 1.008 0.03 11.8898 9.7334 1.18639 61.0722 -39.4489 -47.996 1 -1 -1 0.00847359 0.0269235 -0.00615679 7.21491 -24.662 -14.8964 
4688 293 3 1.008 0.03 16.1473 16.3302 2.20227 -33.0351 65.5126 51.3846 -1 1 1 0.0120968 -0.0340408 0.00955185 22.7122 10.0656 1.76827 
8329 521 3 1.008 0.03 16.7477 11.0772 1.68463 115.112 60.2596 50.867 2 1 1 0.0172421 -0.00871592 -0.00647881 11.4957 6.11837 -5.04068 
7327 458 3 1.008 0.03 11.3339 16.5127 6.08025 60.5162 -32.6696 -43.1021 1 -1 -1 0.0311941 -0.00940965 -0.00639256 16.1324 2.28947 -4.50445 
8326 521 2 12.01 0.11 16.2794 8.62281 1.54386 114.644 57.8052 50.7262 2 1 1 0.000968238 0.00965687 0.000506218 -49.6332 7.97818 -3.16254 
7328 458 3 1.008 0.03 11.1867 14.8517 6.45876 60.369 -34.3307 -42.7236 1 -1 -1 -0.0113336 0.0189948 -0.0140166 3.35806 -6.31702 -3.70337 
4762 298 3 1.008 0.03 10.6586 13.9561 1.53723 59.841 13.9561 1.53723 1 0 0 -0.0155763 -0.0151696 0.012555 2.24328 -12.1439 10.8744 
4960 310 3 1.008 0.03 21.2985 10.7286 0.450909 70.4808 10.7286 0.450909 1 0 0 -0.0189119 0.0193778 0.0361365 4.95526 -13.3193 0.119564 
9827 616 6 16 -0.53 22.6519 9.48357 7.11822 71.8343 9.48357 7.11822 1 0 0 0.00874146 0.00146987 0.00539128 -3.96849 -26.3365 36.9472 
4953 310 3 1.008 0.03 20.6829 8.61892 1.52585 69.8652 8.61892 1.52585 1 0 0 0.0152955 0.000975692 0.0244051 11.4803 -10.2874 15.6039 
4952 310 3 1.008 0.03 20.4758 8.77685 4.54556 69.6582 8.77685 4.54556 1 0 0 -0.0150786 -0.00457117 0.0238485 15.4278 -9.47934 -4.56999 
7794 488 1 16 -0.4 24.0276 8.68049 1.4923 73.21 8.68049 1.4923 1 0 0 -0.00451225 -0.00105166 -0.00267568 -33.9278 -7.92305 34.767 
2568 161 3 1.008 0.03 17.3838 11.653 5.89494 -31.7985 -86.7117 5.89494 -1 -2 0 -0.0341123 0.0268381 -0.00125584 -17.2794 6.70266 19.3009 
8335 521 3 1.008 0.03 17.286 8.83911 1.68764 115.651 58.0215 50.87 2 1 1 0.0203205 0.0118869 3.05867e-05 33.6275 3.48054 11.3526 
6229 390 2 12.01 0.11 23.953 16.315 1.38384 23.953 -32.8673 148.931 0 -1 3 0.00708745 -0.000773869 0.000859049 48.0937 -55.4991 -20.7704 
6237 390 3 1.008 0.03 24.7489 15.8113 1.9763 24.7489 -33.3711 149.523 0 -1 3 -0.00809665 0.00315031 0.00720612 -23.0153 3.60906 6.04206 