ITEM: TIMESTEP
2000000
ITEM: NUMBER OF ATOMS
10479
ITEM: BOX BOUNDS pp pp pp
4.0882558190751794e-01 4.9591174418091420e+01
4.0882558190751794e-01 4.9591174418091420e+01
4.0882558190751794e-01 4.9591174418091420e+01
ITEM: ATOMS id mol type mass q x y z xu yu zu ix iy iz vx vy vz fx fy fz 
4404 276 2 12.01 0.14 6.16941 6.70764 3.82431 6.16941 55.89 102.189 0 1 2 -0.00245655 0.00294812 0.00418695 -22.6785 28.371 14.7785 
3344 209 3 1.008 0.03 4.67747 3.94552 1.69404 103.042 -45.2368 1.69404 2 -1 0 0.0065881 -0.00773656 -0.00298207 13.3412 -3.39457 -12.7867 
4409 276 3 1.008 0.03 6.09546 6.93896 4.88561 6.09546 56.1213 103.25 0 1 2 0.0291371 -0.0126092 0.0126249 -6.63872 -11.1966 2.97451 
4402 276 1 16 -0.4 5.13078 5.96808 3.26139 5.13078 55.1504 101.626 0 1 2 -0.00739225 0.000422487 0.00392433 -22.651 -28.1853 -9.43503 
3330 209 1 16 -0.4 3.70657 2.29569 1.34333 102.071 -46.8867 1.34333 2 -1 0 0.00885832 0.000913932 0.00126741 13.9225 1.94 -6.14381 
3337 209 3 1.008 0.03 2.99873 0.457599 1.34945 101.363 -48.7247 1.34945 2 -1 0 -0.00769456 -0.0205416 0.0121628 -5.42406 -1.79633 -8.33798 
3334 209 2 12.01 0.11 4.80104 3.13825 0.946598 103.166 -46.0441 0.946598 2 -1 0 -0.00100012 0.000122601 -0.00430693 -9.70895 -11.9419 54.2255 
7190 450 2 12.01 0.11 4.40386 2.96635 6.30656 4.40386 52.1487 153.854 0 1 3 0.00467937 0.00701969 0.00906133 20.65 12.9952 30.4686 
4412 276 3 1.008 0.03 6.30553 3.7662 3.53972 6.30553 52.9486 101.904 0 1 2 -0.0216971 0.0091205 -0.0012519 -12.6637 1.5035 -3.8307 
9649 604 8 19 -0.16 6.54228 7.56855 0.699456 6.54228 56.7509 0.699456 0 1 0 0.000621734 -0.000581752 -0.000585556 -3.54904 1.39677 -14.7255 
4406 276 2 12.01 0.11 3.76563 6.26481 3.62687 3.76563 55.4472 101.992 0 1 2 0.00200091 -0.00642725 -0.00544762 24.8953 4.57098 -39.8716 
4416 276 3 1.008 0.03 3.66906 7.36105 3.5428 3.66906 56.5434 101.907 0 1 2 0.0113376 -0.00202094 -0.0040363 -9.08936 -9.0046 6.31777 
4410 276 3 1.008 0.03 6.03991 7.67377 3.37641 6.03991 56.8561 101.741 0 1 2 0.00415352 0.00926124 -0.0125709 4.59124 11.649 -5.96223 
4415 276 3 1.008 0.03 3.56486 5.87494 4.59791 3.56486 55.0573 102.963 0 1 2 -0.0191359 0.00457777 -0.0104885 -5.4894 0.515411 17.6898 
7198 450 3 1.008 0.03 3.35154 2.57183 6.38342 3.35154 51.7542 153.93 0 1 3 -0.0122977 0.000438616 0.00352381 20.226 14.1148 -5.73563 
4414 276 3 1.008 0.03 3.09296 5.75593 2.88218 3.09296 54.9383 101.247 0 1 2 0.0160129 -0.00113936 0.00595758 11.3096 12.3952 17.2203 
2832 177 3 1.008 0.03 0.823144 2.48163 3.50603 -48.3592 51.664 52.6884 -1 1 1 -0.0287055 -0.000942606 -0.00537539 -11.1046 1.53886 -18.8707 
4401 276 1 16 -0.4 7.84338 5.02566 4.1627 7.84338 54.208 102.527 0 1 2 -0.00868228 0.00414768 0.000494939 11.7812 -22.3361 28.8211 
4405 276 2 12.01 0.11 7.37362 3.83657 3.55845 7.37362 53.0189 101.923 0 1 2 -0.000719707 -0.0037075 0.00180718 12.1485 -2.99917 5.93102 
4403 276 2 12.01 0.14 7.5245 6.18631 3.50201 7.5245 55.3687 101.867 0 1 2 0.00481253 -0.00179341 0.0131354 51.4124 46.5753 -13.6391 
4408 276 3 1.008 0.03 7.82769 6.13905 2.46441 7.82769 55.3214 100.829 0 1 2 0.00716239 0.0154165 -0.0261424 -13.7564 -4.96191 -10.2943 
4407 276 3 1.008 0.03 8.25336 7.00403 3.8181 8.25336 56.1864 102.183 0 1 2 -0.0177903 0.00763441 0.00843625 -21.7387 -27.6661 -0.176443 
4413 276 3 1.008 0.03 7.80265 3.74455 2.57781 7.80265 52.9269 100.943 0 1 2 0.0136605 0.00749381 0.000171503 -1.80552 -0.470159 -13.0677 
3342 209 3 1.008 0.03 5.79948 2.67197 1.0168 104.164 -46.5104 1.0168 2 -1 0 -0.0067028 -0.00933852 -0.0407687 -9.12275 2.77504 3.90438 
7200 450 3 1.008 0.03 4.70031 3.48243 5.3711 4.70031 52.6648 152.918 0 1 3 0.0108515 0.0132601 0.00100171 -16.0048 -7.68339 5.33274 
7199 450 3 1.008 0.03 4.67021 3.68288 7.14107 4.67021 52.8652 154.688 0 1 3 0.00474114 -0.0183233 0.0150238 -21.2859 -12.4329 -21.141 
7186 450 1 16 -0.4 5.36574 1.95971 6.57978 5.36574 51.1421 154.127 0 1 3 -0.00744455 -0.00698926 0.00124996 -2.66784 -34.0005 -24.0292 
3332 209 2 12.01 0.14 3.73084 1.00699 0.75976 102.096 -48.1754 0.75976 2 -1 0 -0.00474233 -0.000892473 -0.000689591 15.3903 -13.4072 20.83 
4411 276 3 1.008 0.03 7.72296 2.95631 4.09105 7.72296 52.1387 102.456 0 1 2 -0.0172819 0.0164877 -0.00780587 1.48082 0.738179 5.46601 
7402 463 3 1.008 0.03 4.21095 7.74775 7.32776 151.758 -41.4346 56.5101 3 -1 1 -0.0379195 0.0126885 -0.0195775 3.90109 -9.06073 2.37579 
7194 450 3 1.008 0.03 4.80329 1.16778 4.74985 4.80329 50.3501 152.297 0 1 3 0.0236379 0.0102433 0.029663 -6.49684 -10.3899 -1.37615 
2831 177 3 1.008 0.03 0.901622 3.47508 1.9884 -48.2807 52.6574 51.1708 -1 1 1 0.00171108 -0.00472612 0.00564086 6.01387 -0.347818 -4.17194 
7399 463 3 1.008 0.03 2.36879 7.91952 5.76637 149.916 -41.2628 54.9487 3 -1 1 0.00207772 -0.0102168 0.0016787 -5.33455 11.3708 16.7507 
3338 209 3 1.008 0.03 4.68256 0.474393 1.00448 103.047 -48.708 1.00448 2 -1 0 0.017323 -0.0202515 0.00525326 -12.6422 10.3803 -12.847 
7188 450 2 12.01 0.14 5.20426 0.79774 5.69547 5.20426 49.9801 153.243 0 1 3 -0.0027007 0.00300185 0.00787818 -26.7728 13.6874 28.7429 
7406 463 3 1.008 0.03 6.64646 8.56498 6.57241 154.194 -40.6174 55.7548 3 -1 1 0.00823668 0.00494763 -0.000282378 4.30078 -20.5195 -5.99145 
7404 463 3 1.008 0.03 0.433383 7.02258 7.41475 147.98 -42.1598 56.5971 3 -1 1 0.00741351 0.01111 -0.0387826 -7.34669 0.433647 -13.075 
4845 303 3 1.008 0.03 16.1511 0.971085 0.815374 -33.0312 50.1534 0.815374 -1 1 0 -0.0126904 -0.0109817 -0.000583971 1.01373 -15.5188 13.3949 
2241 141 1 16 -0.4 11.0535 6.68398 7.31441 11.0535 6.68398 56.4968 0 0 1 -0.00532263 -2.28111e-05 -0.00381295 16.9065 10.2296 -10.4384 
7580 474 3 1.008 0.03 12.4751 2.56657 2.67121 12.4751 -46.6158 -46.5111 0 -1 -1 0.00832704 -0.0205622 0.0268784 4.93309 -11.5788 8.8593 
2248 141 3 1.008 0.03 11.6853 5.53472 5.64479 11.6853 5.53472 54.8271 0 0 1 -0.0161975 0.00637078 0.000801159 10.8003 -9.85852 -0.108014 
10160 638 8 19 -0.16 15.9703 6.39368 0.469765 15.9703 6.39368 49.6521 0 0 1 0.00169572 0.00205353 0.00163538 24.8137 -23.8718 7.37693 
10158 638 7 12.01 0.35 14.9238 7.13937 0.538449 14.9238 7.13937 49.7208 0 0 1 -0.00230373 -0.00572041 -0.00459358 -5.98209 61.6974 38.5142 
10155 638 5 32.06 1.02 14.6726 7.96749 2.22037 14.6726 7.96749 51.4027 0 0 1 -0.00161837 0.00175797 -0.00634624 26.7628 26.4132 -48.3249 
10157 638 6 16 -0.53 15.998 8.54082 2.39142 15.998 8.54082 51.5738 0 0 1 -0.00675481 -0.000599236 5.16525e-05 -13.0215 -7.96744 15.348 
10156 638 6 16 -0.53 14.1984 6.93555 3.07174 14.1984 6.93555 52.2541 0 0 1 -0.00216953 -0.0010267 -0.00490387 1.10994 -27.1949 18.1324 
2250 141 3 1.008 0.03 9.67184 4.05213 6.14034 9.67184 4.05213 55.3227 0 0 1 -0.00754245 -0.0104454 0.0123855 -6.45042 -10.2376 -4.16342 
2243 141 2 12.01 0.14 10.8116 5.85141 6.18383 10.8116 5.85141 55.3662 0 0 1 0.00204911 0.00383779 -0.00797399 -40.2132 -0.128647 45.7023 
2244 141 2 12.01 0.14 9.9337 4.73898 6.92599 9.9337 4.73898 56.1083 0 0 1 0.00967411 -0.00348615 0.000849474 15.3517 20.8002 -38.0408 
7579 474 3 1.008 0.03 13.2534 3.28418 1.37044 13.2534 -45.8982 -47.8119 0 -1 -1 -0.022732 0.0185424 0.00366934 2.70129 2.82857 -29.2302 
7573 474 2 12.01 0.11 13.4156 3.01977 2.37164 13.4156 -46.1626 -46.8107 0 -1 -1 0.00374139 -0.00594469 -0.00181715 4.55698 35.1921 27.8762 
7581 474 3 1.008 0.03 13.5141 4.00951 2.88259 13.5141 -45.1728 -46.2998 0 -1 -1 -0.0326341 0.00944341 -0.025954 -5.87776 -17.7709 -5.15315 
7569 474 1 16 -0.4 14.6498 2.34708 2.56435 14.6498 -46.8353 -46.618 0 -1 -1 -0.000448038 -0.00119243 0.000272494 1.43616 -9.59307 22.4947 
2256 141 3 1.008 0.03 11.7824 3.11377 6.58832 11.7824 3.11377 55.7707 0 0 1 -0.0173359 -0.0140556 -0.0116961 6.33774 -7.52303 -4.12004 
2247 141 3 1.008 0.03 10.2052 6.44988 5.49413 10.2052 6.44988 54.6765 0 0 1 -0.0198141 0.0125256 0.000207769 0.232702 -7.29253 -1.62828 
7576 474 3 1.008 0.03 14.109 1.10506 4.08685 14.109 -48.0773 -45.0955 0 -1 -1 -0.00487387 0.0031615 -0.00505513 3.4136 -0.831316 1.73145 
7571 474 2 12.01 0.14 14.8297 1.91622 3.946 14.8297 -47.2661 -45.2363 0 -1 -1 -0.000563862 -0.0029291 7.95487e-05 -31.1945 -0.435284 -22.6892 
7575 474 3 1.008 0.03 14.5098 2.5993 4.71951 14.5098 -46.583 -44.4628 0 -1 -1 0.0088951 -0.00190964 -0.000334536 1.94848 16.3231 -3.20284 
9587 600 6 16 -0.53 10.2508 0.969626 7.03702 -38.9316 0.969626 7.03702 -1 0 0 -0.00415727 -0.00283568 -0.00492702 6.15516 -1.28965 20.253 
7572 474 2 12.01 0.14 16.223 1.43621 4.23017 16.223 -47.7461 -44.9522 0 -1 -1 -0.0035027 0.00248733 0.00995475 -2.2427 -4.41125 -20.3003 
7578 474 3 1.008 0.03 16.3491 1.434 5.29835 16.3491 -47.7483 -43.884 0 -1 -1 -0.0283276 -0.0189754 -0.0322439 11.5399 4.63881 8.57418 
2249 141 3 1.008 0.03 9.00806 5.23438 7.20276 9.00806 5.23438 56.3851 0 0 1 -0.00252426 0.00299742 0.000951439 -4.02354 -4.69086 6.71219 
2245 141 2 12.01 0.11 11.9044 7.78134 6.95857 11.9044 7.78134 56.1409 0 0 1 0.0044277 0.00327448 0.00198561 27.4429 -35.6299 21.3082 
9586 600 6 16 -0.53 10.8263 1.24429 4.72079 -38.3561 1.24429 4.72079 -1 0 0 0.00377341 -0.00893968 -0.000516472 6.55086 18.1855 -35.3066 
2251 141 3 1.008 0.03 11.5364 8.32468 6.15397 11.5364 8.32468 55.3363 0 0 1 -0.00945117 -0.000852498 0.0286782 -21.1727 28.2135 -15.3767 
2253 141 3 1.008 0.03 12.8255 7.38114 6.49911 12.8255 7.38114 55.6815 0 0 1 -0.00283612 -0.000203394 0.0188308 -3.06487 2.65767 12.5263 
6828 427 3 1.008 0.03 24.5783 1.21952 1.09678 -24.604 50.4019 1.09678 -1 1 0 -0.00661655 -0.0182547 -0.00351015 1.59485 1.73506 -2.0696 
10475 686 9 24.305 2 24.9825 1.21661 7.32117 24.9825 50.399 7.32117 0 1 0 -0.00112962 -0.00442341 0.000979059 8.76151 19.2414 1.59999 
6704 419 3 1.008 0.03 24.748 5.16069 2.23707 24.748 5.16069 -46.9453 0 0 -1 0.017592 -0.00670905 0.00909612 -5.89669 0.948175 14.7154 
8273 518 1 16 -0.4 23.5339 0.418192 6.3465 23.5339 49.6005 6.3465 0 1 0 0.00158326 3.47535e-05 -0.000299419 -10.2681 3.14023 3.82587 
6702 419 3 1.008 0.03 23.2143 6.02862 1.8594 23.2143 6.02862 -47.323 0 0 -1 0.00927366 -0.0188563 -0.00119368 -11.6052 10.6355 18.356 
2111 132 3 1.008 0.03 20.3706 5.74707 1.31552 -28.8118 -92.6176 50.4979 -1 -2 1 0.013975 -0.00404956 -0.0127596 1.43332 2.48286 12.294 
6703 419 3 1.008 0.03 23.2674 4.25942 1.95846 23.2674 4.25942 -47.2239 0 0 -1 0.00474137 0.00761401 0.000256444 -7.01961 -10.9217 4.25811 
9760 612 6 16 -0.53 20.1415 1.98505 5.0713 -29.0409 51.1674 5.0713 -1 1 0 0.00280738 0.00279568 0.0053398 3.29699 -14.883 -3.43374 
9758 612 5 32.06 1.02 20.3718 3.23758 5.72668 -28.8106 52.4199 5.72668 -1 1 0 -0.0026367 -0.000719157 0.000496297 13.6396 -55.4593 57.79 
9761 612 7 12.01 0.35 18.7922 3.4882 6.62478 -30.3901 52.6705 6.62478 -1 1 0 -7.50837e-05 -0.00186751 0.000646127 22.3351 -48.6211 14.0261 
9762 612 8 19 -0.16 17.7341 3.52702 5.88002 -31.4482 52.7094 5.88002 -1 1 0 -0.000969487 -0.00125006 0.00157944 -15.5059 14.2177 -23.7042 
9764 612 8 19 -0.16 18.5437 2.44165 7.40847 -30.6387 51.624 7.40847 -1 1 0 0.00439663 -0.000273986 0.00294413 7.93422 9.40095 7.1423 
9757 612 4 14.01 -0.66 21.4922 3.13207 6.90688 -27.6901 52.3144 6.90688 -1 1 0 0.00257578 0.00116628 -0.00616424 -44.7468 -4.65049 -30.0164 
9759 612 6 16 -0.53 20.4139 4.35429 4.91588 -28.7684 53.5366 4.91588 -1 1 0 0.00126445 0.00196974 -0.00111874 7.40982 66.2411 -43.1196 
9765 612 5 32.06 1.02 22.8413 3.86651 7.00422 -26.3411 53.0489 7.00422 -1 1 0 -0.000295204 -0.00120687 -0.000855188 60.1484 -20.6756 -1.18159 
9766 612 6 16 -0.53 23.2281 4.67763 5.90268 -25.9542 53.86 5.90268 -1 1 0 -0.00698448 0.00294883 0.00160038 -3.67904 20.1911 -14.3707 
9710 608 8 19 -0.16 22.3285 1.29611 2.66543 -26.8538 50.4785 2.66543 -1 1 0 -0.00616647 -0.00277682 -0.00515802 -16.6713 -28.5675 -23.1471 
8282 518 3 1.008 0.03 24.3005 2.42999 4.19201 24.3005 51.6123 4.19201 0 1 0 0.020847 -0.0141628 -0.00359206 -9.85557 -12.2268 3.77169 
7577 474 3 1.008 0.03 16.9732 2.02603 3.67737 16.9732 -47.1563 -45.505 0 -1 -1 0.0248773 0.00452885 -0.0225376 -2.11095 -2.16054 10.8207 
6694 419 2 12.01 0.11 23.7966 5.15463 1.71545 23.7966 5.15463 -47.4669 0 0 -1 -0.00494115 -0.00597065 0.00452867 28.8182 3.27008 -16.4958 
8276 518 2 12.01 0.14 24.7927 1.47774 4.45344 24.7927 50.6601 4.45344 0 1 0 0.00370816 -0.00255916 -0.00449152 -28.5523 -40.4653 33.8344 
2112 132 3 1.008 0.03 21.2702 4.15572 1.18587 -27.9122 -94.209 50.3682 -1 -2 1 0.00562885 -0.00628453 -0.00680036 -11.5253 -6.30802 8.40497 
347 22 3 1.008 0.03 21.5436 7.38093 2.34642 70.726 7.38093 149.893 1 0 3 -0.0135428 0.00385695 0.00365964 -11.066 -21.3238 -8.96405 
9711 608 8 19 -0.16 20.5257 0.69072 1.6102 -28.6566 49.8731 1.6102 -1 1 0 0.00400046 -0.00592795 0.00558841 1.16175 3.20617 -7.09775 
2102 132 2 12.01 0.11 20.6767 4.91985 0.698049 -28.5057 -93.4449 49.8804 -1 -2 1 0.000442919 0.00121419 -0.0012461 19.6894 16.6817 -28.9652 
2106 132 3 1.008 0.03 19.1909 2.86113 1.04965 -29.9914 -95.5036 50.232 -1 -2 1 -0.00255146 0.0234663 -0.000174528 -15.1175 6.56093 -9.01883 
2105 132 3 1.008 0.03 18.2662 4.29014 1.50469 -30.9161 -94.0746 50.687 -1 -2 1 -0.00982556 0.0136673 0.0169629 2.61233 0.0931302 -9.00538 
348 22 3 1.008 0.03 22.8088 8.49922 2.65555 71.9911 8.49922 150.203 1 0 3 -0.00454745 -0.0203991 -0.0188695 -10.9123 -4.04852 -1.02229 
349 22 3 1.008 0.03 22.1189 7.75894 4.04116 71.3012 7.75894 151.588 1 0 3 -0.0103206 0.0144242 -0.00556845 -15.3523 2.79444 -16.617 
343 22 3 1.008 0.03 19.3551 8.07678 3.69533 68.5375 8.07678 151.242 1 0 3 0.01769 -0.00130118 -0.000635865 12.1637 19.0518 -2.36458 
2100 132 2 12.01 0.14 18.654 3.74258 0.628977 -30.5284 -94.6221 49.8113 -1 -2 1 0.00440964 0.00161446 -0.00213753 11.0824 -0.396752 8.79039 
341 22 2 12.01 0.11 21.8331 8.13143 3.02372 71.0155 8.13143 150.571 1 0 3 -0.00671675 -0.00415718 0.000398299 22.8915 56.5592 15.3527 
914 58 1 16 -0.4 24.8677 8.29151 6.90176 123.232 8.29151 6.90176 2 0 0 0.00250089 0.00260687 -0.000940865 24.5531 3.68264 2.9847 
9767 612 6 16 -0.53 23.9461 2.96027 7.40661 -25.2363 52.1426 7.40661 -1 1 0 0.00340825 -0.000563929 -0.000149665 -38.4137 8.61463 2.72657 
9763 612 8 19 -0.16 18.8257 4.54689 7.36677 -30.3566 53.7292 7.36677 -1 1 0 -0.00446579 0.00179163 -0.00219141 -5.17136 22.4714 17.6172 
9866 619 7 12.01 0.35 1.15368 16.7872 0.688705 1.15368 65.9695 0.688705 0 1 0 0.00124199 0.00250443 -0.00079139 6.34854 90.6301 42.7811 
9853 618 8 19 -0.16 0.869669 13.6667 6.01479 50.052 62.8491 6.01479 1 1 0 -0.000997133 -0.00224843 -0.000799008 -2.90203 -12.7681 19.3553 
7396 463 2 12.01 0.14 3.88625 8.73766 7.05722 151.433 -40.4447 56.2396 3 -1 1 0.0029496 0.00132258 0.0059466 -1.24773 24.0686 4.587 
4955 310 3 1.008 0.03 8.2612 9.45662 1.08182 57.4436 9.45662 1.08182 1 0 0 -0.0027406 -0.000394719 0.0130357 -18.4926 -25.1319 -10.6713 
9869 619 8 19 -0.16 1.9893 16.637 1.70835 1.9893 65.8194 1.70835 0 1 0 0.00626737 -0.000907642 0.00318131 14.0276 -30.4464 -21.3995 
7394 463 1 16 -0.4 4.72322 9.30602 6.06471 152.27 -39.8763 55.2471 3 -1 1 -0.000291124 0.00330171 0.00560452 11.5565 2.62024 1.28135 
9850 618 6 16 -0.53 0.663309 13.2671 2.83329 49.8457 62.4494 2.83329 1 1 0 -0.00184483 -0.00144277 0.00989952 14.0098 13.5841 18.8434 
1806 113 3 1.008 0.03 5.0106 15.7787 4.65648 5.0106 15.7787 4.65648 0 0 0 0.00948655 0.0111936 0.00101409 13.9476 31.5148 0.351179 
9860 618 8 19 -0.16 3.88795 10.6868 3.74417 53.0703 59.8692 3.74417 1 1 0 -0.00599049 0.00267246 0.00309343 6.4221 1.49117 10.7359 
9858 618 7 12.01 0.35 3.34886 10.9506 2.58139 52.5312 60.133 2.58139 1 1 0 -0.00605855 -0.00317149 -0.00564294 10.1388 -16.3166 -31.454 
9854 618 8 19 -0.16 2.92527 13.0966 5.65156 52.1076 62.2789 5.65156 1 1 0 0.00267424 -0.00113422 0.00279631 -4.26703 0.442287 26.3937 
9847 618 4 14.01 -0.66 3.14777 13.4957 3.19159 52.3301 62.6781 3.19159 1 1 0 1.42757e-05 -0.00127782 -0.00563899 32.2472 9.8011 3.88291 
9855 618 5 32.06 1.02 3.66122 12.6734 1.98919 52.8436 61.8557 1.98919 1 1 0 0.00581132 0.00326361 -0.00174561 13.1815 -14.838 9.06027 
9859 618 8 19 -0.16 3.88 10.0925 1.70395 53.0624 59.2749 1.70395 1 1 0 0.00411271 0.00607464 -0.00290219 -3.13758 5.5014 11.1496 
9856 618 6 16 -0.53 5.09783 12.6748 1.80856 54.2802 61.8571 1.80856 1 1 0 0.00458043 0.00284393 0.00138431 -9.43812 7.02727 4.49556 
9848 618 5 32.06 1.02 1.72798 13.876 3.62523 50.9103 63.0584 3.62523 1 1 0 -0.00143895 0.00552935 -0.00243139 -50.6338 60.9967 17.3467 
1798 113 2 12.01 0.11 5.56928 16.5271 4.02191 5.56928 16.5271 4.02191 0 0 0 -0.000371952 0.00190951 0.00407149 9.4614 9.56654 -7.9771 
5021 314 3 1.008 0.03 5.00213 13.7078 5.47729 103.367 -35.4746 103.842 2 -1 2 0.005976 -0.0322959 -0.0083252 -17.5756 4.28408 1.58934 
5020 314 3 1.008 0.03 5.79779 12.3154 6.20527 104.162 -36.8669 104.57 2 -1 2 -0.0312104 0.00556821 -0.00191575 -2.80045 -5.7316 -0.757278 
9849 618 6 16 -0.53 1.57834 15.2992 4.10286 50.7607 64.4815 4.10286 1 1 0 -0.00179698 -0.00793073 -0.00269755 9.51999 -72.971 -38.555 
5013 314 2 12.01 0.11 5.89587 13.3575 5.93401 104.261 -35.8249 104.299 2 -1 2 -0.00294799 0.000706415 0.0077917 -0.98542 -7.17635 3.75984 
1808 113 3 1.008 0.03 6.28242 15.9107 3.45085 6.28242 15.9107 3.45085 0 0 0 0.011715 -0.0218174 -0.00898131 -5.58537 5.30457 0.534123 
7398 463 2 12.01 0.11 6.09677 9.4657 6.46252 153.644 -39.7166 55.6449 3 -1 1 0.0033526 0.00145377 0.00108275 0.634356 28.6205 -20.772 
9851 618 7 12.01 0.35 1.68589 13.0118 5.21508 50.8682 62.1942 5.21508 1 1 0 0.00773147 -0.00207243 -0.004641 20.875 1.71539 -22.9103 
9861 618 8 19 -0.16 2.08467 10.5843 2.65684 51.267 59.7667 2.65684 1 1 0 -0.00211592 0.000779718 -0.00343876 -6.91097 11.9538 2.04778 
5019 314 3 1.008 0.03 6.60542 13.4475 5.15082 104.97 -35.7348 103.516 2 -1 2 0.0308755 -0.0102336 0.00133372 12.8439 -2.85795 -17.1769 
1801 113 3 1.008 0.03 7.80511 16.4872 4.94123 7.80511 16.4872 4.94123 0 0 0 0.0118265 0.00972809 0.00096933 16.688 -2.53284 -3.94601 
9857 618 6 16 -0.53 2.87886 12.8094 0.78638 52.0612 61.9917 0.78638 1 1 0 0.000921031 0.00412943 -0.000533432 -17.2727 -9.25925 -22.7528 
4957 310 3 1.008 0.03 7.58841 10.9429 1.78068 56.7708 10.9429 1.78068 1 0 0 0.0170072 0.00192367 -0.0093069 17.1046 -12.1986 3.14943 
7395 463 2 12.01 0.14 2.44124 8.71511 6.54987 149.988 -40.4672 55.7322 3 -1 1 0.0054435 -0.00599787 0.00175516 -16.6999 -17.5783 4.81474 
9822 616 8 19 -0.16 6.17711 15.5375 0.669898 55.3595 15.5375 0.669898 1 0 0 0.000844092 0.000144341 -0.00107686 6.48937 11.8179 -0.720199 
5016 314 3 1.008 0.03 8.15568 14.2048 6.35688 106.52 -34.9776 104.722 2 -1 2 0.00269879 0.000106477 -0.00690919 8.21456 -5.41447 21.6246 
9817 616 4 14.01 -0.66 8.56001 14.8462 1.82515 57.7424 14.8462 1.82515 1 0 0 -0.0115137 -0.00221246 -0.00695852 -4.0678 28.8123 -9.99195 
4949 310 2 12.01 0.11 8.51552 10.3785 1.49977 57.6979 10.3785 1.49977 1 0 0 0.0057254 0.00459477 0.0069504 -12.095 6.2496 29.1399 
7407 463 3 1.008 0.03 6.62581 10.124 5.71676 154.173 -39.0584 54.8991 3 -1 1 -0.00888926 -0.00153321 -0.00160353 -11.1779 -18.0825 14.0306 
9852 618 8 19 -0.16 1.41825 11.7064 5.19292 50.6006 60.8887 5.19292 1 1 0 0.0029186 -0.00304082 0.00409287 -11.9148 10.7186 -5.49611 
7408 463 3 1.008 0.03 6.24612 9.94349 7.41469 153.793 -39.2389 56.597 3 -1 1 0.00887214 0.0109567 0.00703783 -8.62193 8.24641 8.81947 
7400 463 3 1.008 0.03 2.05908 9.64786 6.11022 149.606 -39.5345 55.2926 3 -1 1 -0.00868529 0.00765283 0.00760779 12.068 -2.84708 0.729308 
5011 314 2 12.01 0.14 7.66531 13.8682 7.30108 106.03 -35.3141 105.666 2 -1 2 -0.000477531 -0.00295684 -0.00286524 -9.0652 69.0173 -16.3849 
5009 314 1 16 -0.4 6.29265 14.1084 7.04644 104.657 -35.074 105.411 2 -1 2 -0.00265473 -0.00899958 0.00596245 1.38138 -4.30299 4.37243 
3657 229 3 1.008 0.03 1.11617 9.36262 0.466074 1.11617 58.545 0.466074 0 1 0 0.0128489 0.0277217 -0.0332584 -1.9517 -5.72498 -10.1146 
4945 310 1 16 -0.4 9.23847 11.0154 0.504544 58.4208 11.0154 0.504544 1 0 0 0.00447489 0.00433528 0.00449016 -3.06514 31.4649 -39.856 
2391 150 3 1.008 0.03 16.7718 9.97505 6.97929 -81.5929 9.97505 56.1616 -2 0 1 -0.0147413 0.00610444 0.0358417 2.48745 -0.21989 29.2477 
10147 638 4 14.01 -0.66 13.6068 9.08383 1.8726 13.6068 9.08383 51.055 0 0 1 0.000127741 0.00773161 3.26183e-05 26.1888 -5.85717 -16.0168 
10150 638 6 16 -0.53 11.8943 8.86302 3.63292 11.8943 8.86302 52.8153 0 0 1 4.3194e-05 -0.00340686 0.00199412 -6.88959 2.63935 19.2388 
4956 310 3 1.008 0.03 9.12208 10.0498 2.36267 58.3044 10.0498 2.36267 1 0 0 -0.0105665 0.0159213 0.00212063 -5.44525 13.4908 -3.78698 
9827 616 6 16 -0.53 9.18243 13.0876 3.37819 58.3648 13.0876 3.37819 1 0 0 0.00443777 0.00252794 0.00442749 -8.81889 -10.7627 34.4265 
10152 638 8 19 -0.16 14.4479 10.0683 4.66546 14.4479 10.0683 53.8478 0 0 1 -0.000513382 0.00706063 -0.00260066 19.9712 -6.31914 1.94266 
9829 616 8 19 -0.16 10.3026 16.1659 3.77736 59.4849 16.1659 3.77736 1 0 0 -0.00253639 0.00040032 -0.00354981 -17.942 3.10862 -13.2305 
9825 616 5 32.06 1.02 9.64083 13.9291 2.34076 58.8232 13.9291 2.34076 1 0 0 0.00218542 -0.00473307 0.00102025 54.232 3.35104 -2.66873 
9828 616 7 12.01 0.35 10.8262 15.1522 3.10976 60.0085 15.1522 3.10976 1 0 0 0.00391866 0.00414331 0.000735631 23.9213 -5.38876 50.1834 
9830 616 8 19 -0.16 11.561 14.5902 4.04918 60.7434 14.5902 4.04918 1 0 0 0.000929583 0.00049466 0.00239921 -8.28034 -18.0353 2.54418 
10153 638 8 19 -0.16 13.0011 11.5265 4.81914 13.0011 11.5265 54.0015 0 0 1 0.00406491 0.000719604 -0.00174156 -2.43528 2.83212 -14.8029 
10149 638 6 16 -0.53 11.8396 10.7381 2.09272 11.8396 10.7381 51.2751 0 0 1 -0.00518668 0.00263356 0.000599783 -6.04335 14.59 -16.8535 
10148 638 5 32.06 1.02 12.6365 9.77958 2.82672 12.6365 9.77958 52.0091 0 0 1 -0.00297717 -0.00285213 0.00324017 -21.3759 1.13993 -3.15112 
10151 638 7 12.01 0.35 13.6928 10.8276 3.91918 13.6928 10.8276 53.1015 0 0 1 -0.000416584 -0.00451773 0.0077624 -18.4843 -14.2924 17.7221 
10154 638 8 19 -0.16 14.4589 11.6661 3.25104 14.4589 11.6661 52.4334 0 0 1 -0.000182821 -0.00369797 0.0063504 4.43039 3.9792 -2.1561 
9831 616 8 19 -0.16 11.7988 15.628 2.36531 60.9812 15.628 2.36531 1 0 0 0.000452283 0.000313654 0.00446299 -13.1234 5.95322 -28.5461 
9826 616 6 16 -0.53 10.506 13.2553 1.38727 59.6883 13.2553 1.38727 1 0 0 0.00516841 -0.00435258 -0.00391772 -8.49362 -5.34528 -18.1428 
4573 286 3 1.008 0.03 10.935 12.5499 6.88573 -38.2473 61.7323 -42.2966 -1 1 -1 0.022319 -0.00557251 0.000583301 1.86457 -0.181846 -20.2927 
5726 358 3 1.008 0.03 15.371 14.5118 4.51135 15.371 112.876 -44.671 0 2 -1 0.00336456 -0.0224592 -0.00481287 -17.2621 -26.1397 -14.1925 
9818 616 5 32.06 1.02 8.75369 15.9659 0.754603 57.936 15.9659 0.754603 1 0 0 -0.00234148 0.000951548 -0.00192749 49.0596 -40.5205 -48.7113 
7803 488 3 1.008 0.03 12.6404 14.3526 0.569795 61.8228 14.3526 0.569795 1 0 0 0.00349855 -0.00755746 0.00106063 -10.0962 1.26081 1.4201 
5718 358 2 12.01 0.11 16.2527 15.0785 4.492 16.2527 113.443 -44.6903 0 2 -1 0.0125447 -0.00372627 -0.000662024 16.4805 20.7065 58.0999 
5728 358 3 1.008 0.03 15.8168 16.0529 4.70529 15.8168 114.418 -44.4771 0 2 -1 0.00341037 0.0423775 -0.0292394 13.268 6.64447 3.34608 
2394 150 3 1.008 0.03 18.8957 9.31324 7.41318 -79.469 9.31324 56.5955 -2 0 1 0.00339893 -0.0229057 0.0127836 13.9242 2.61581 -0.947363 
6610 414 1 16 -0.4 24.3777 15.6021 0.63458 24.3777 -33.5803 49.8169 0 -1 1 -0.00552751 -0.000733903 -0.00682048 -22.6392 -25.6639 -8.93709 
6612 414 2 12.01 0.14 24.0342 14.2939 1.1843 24.0342 -34.8884 50.3666 0 -1 1 -0.00124622 -0.000972006 -0.00295074 -7.40299 55.6105 19.9519 
6618 414 3 1.008 0.03 23.1424 14.3915 1.84541 23.1424 -34.7908 51.0278 0 -1 1 -0.0196123 0.0117496 -0.0179006 4.86497 -7.11688 -23.2822 
4985 312 3 1.008 0.03 22.0751 16.0056 2.94285 22.0751 -33.1768 52.1252 0 -1 1 -0.0039638 -0.000168175 -0.0146112 -13.8987 -0.813459 -12.5852 
5717 358 2 12.01 0.11 18.1749 14.3835 0.507025 18.1749 112.748 -48.6753 0 2 -1 -0.00306864 -0.00532778 0.00328648 25.621 -32.0471 20.206 
5724 358 3 1.008 0.03 17.9668 13.7039 1.35124 17.9668 112.069 -47.8311 0 2 -1 0.0165495 0.0303642 -0.00205686 -15.9486 10.4996 -8.81078 
4980 312 2 12.01 0.14 22.7718 16.556 3.53385 22.7718 -32.6263 52.7162 0 -1 1 0.00570547 -0.00138941 -0.00371135 16.2463 -36.24 -17.774 
3289 206 3 1.008 0.03 20.2514 10.3235 0.672463 -78.1133 -38.8588 49.8548 -2 -1 1 -0.00782079 0.00187555 -0.00571756 4.62495 -8.56809 -5.97851 
5715 358 2 12.01 0.14 18.7344 16.329 1.85458 18.7344 114.694 -47.3278 0 2 -1 0.00608472 0.00128201 -0.00191761 -25.3035 -14.834 -26.8005 
5714 358 1 16 -0.4 17.021 15.0755 3.36826 17.021 113.44 -45.8141 0 2 -1 0.00935743 0.00558987 0.00413635 43.8238 6.9282 -76.7949 
4990 312 3 1.008 0.03 21.9635 14.183 4.44924 21.9635 -34.9994 53.6316 0 -1 1 0.021015 -0.0155892 -0.0286236 -19.2657 -19.2325 3.50888 
4992 312 3 1.008 0.03 23.1139 14.1866 5.87243 23.1139 -34.9958 55.0548 0 -1 1 -0.023479 0.0126032 -0.0150942 -17.1349 8.10068 5.45357 
4978 312 1 16 -0.4 22.555 16.0136 4.8455 22.555 -33.1688 54.0278 0 -1 1 -0.00278245 0.00416691 -0.00410603 21.562 23.9138 8.89232 
925 58 3 1.008 0.03 21.6274 11.9717 5.83298 119.992 11.9717 5.83298 2 0 0 -0.00137974 -0.00203422 0.0304944 -5.69202 -16.662 28.753 
917 58 2 12.01 0.11 21.6125 11.4587 6.85066 119.977 11.4587 6.85066 2 0 0 -0.00110782 0.00138749 0.00838024 -48.1207 17.083 -27.3345 
913 58 1 16 -0.4 22.8356 10.9186 7.12011 121.2 10.9186 7.12011 2 0 0 0.00364494 0.00617653 0.00110628 34.9281 -6.84828 10.5875 
919 58 3 1.008 0.03 22.7299 9.32172 5.76738 121.095 9.32172 5.76738 2 0 0 0.00330613 -0.000952233 0.0144996 16.6965 13.3477 9.91563 
4991 312 3 1.008 0.03 23.6398 14.1976 4.28328 23.6398 -34.9848 53.4656 0 -1 1 0.00904332 -0.00148247 0.00525011 -14.9473 23.9978 7.67974 
350 22 3 1.008 0.03 17.2456 12.1715 4.52526 66.428 12.1715 152.072 1 0 3 -0.0235353 0.0224992 -0.00404457 19.8426 -9.42407 -1.74061 
4685 293 3 1.008 0.03 19.2034 15.3762 6.47542 -29.9789 64.5585 55.6578 -1 1 1 0.0106684 0.0103417 -0.00697646 -0.348383 2.08831 0.904371 
4677 293 2 12.01 0.11 19.3235 16.36 6.9365 -29.8589 65.5424 56.1188 -1 1 1 0.000399436 -0.000404674 -0.000274087 -14.8054 -20.3437 29.9576 
4684 293 3 1.008 0.03 20.3511 16.4593 7.2369 -28.8312 65.6416 56.4193 -1 1 1 -0.0125046 0.00274044 0.0072678 5.67612 -0.247865 11.4495 
340 22 2 12.01 0.14 18.8681 10.1893 3.87995 68.0505 10.1893 151.427 1 0 3 0.00383418 9.59776e-05 0.008688 -19.7113 -49.2918 -15.9287 
339 22 2 12.01 0.14 19.8881 9.04715 3.88979 69.0705 9.04715 151.437 1 0 3 -0.00248166 0.0108389 0.00388187 -20.5912 -9.13567 -6.98056 
346 22 3 1.008 0.03 17.9675 9.73687 4.30252 67.1499 9.73687 151.85 1 0 3 -0.00491075 -0.00933245 -0.014166 -1.96021 2.58677 -3.22084 
920 58 3 1.008 0.03 23.4924 10.7696 5.17227 121.857 10.7696 5.17227 2 0 0 0.0108102 0.0200607 0.00496983 -2.46245 1.10458 6.34716 
337 22 1 16 -0.4 20.926 9.28615 2.96063 70.1084 9.28615 150.508 1 0 3 -0.00531358 0.000215679 0.00365622 21.0302 -37.0695 12.5455 
338 22 1 16 -0.4 19.138 11.2174 4.74837 68.3203 11.2174 152.295 1 0 3 -8.76574e-05 -0.00809297 -0.00535036 13.9862 16.7816 2.10398 
344 22 3 1.008 0.03 20.2803 8.94709 4.87514 69.4627 8.94709 152.422 1 0 3 0.00983725 -0.00963302 0.0109081 7.54292 -0.549033 16.3118 
6609 414 1 16 -0.4 24.7016 12.5157 2.51943 24.7016 -36.6666 51.7018 0 -1 1 0.000890653 -0.00135093 -0.00603339 4.49814 -9.94724 27.4527 
4982 312 2 12.01 0.11 22.8142 14.6136 4.91008 22.8142 -34.5687 54.0924 0 -1 1 -0.00364755 0.000150776 0.00394448 32.1433 -9.77278 -18.9812 
916 58 2 12.01 0.14 24.8091 9.67309 6.4807 123.174 9.67309 6.4807 2 0 0 -0.00215861 -0.00387873 -0.000342785 5.80441 -8.09322 38.4919 
351 22 3 1.008 0.03 18.547 13.1594 4.98556 67.7294 13.1594 152.533 1 0 3 -0.0290705 -0.00307961 0.0386082 9.21074 0.612288 -4.02281 
342 22 2 12.01 0.11 18.343 12.2988 4.35009 67.5254 12.2988 151.897 1 0 3 0.00470601 -0.00275601 -0.00195457 -41.0336 21.7894 22.7836 
345 22 3 1.008 0.03 18.6001 10.4255 2.84257 67.7824 10.4255 150.39 1 0 3 0.00296251 0.00540359 -0.0301297 4.52213 5.61353 3.20963 
352 22 3 1.008 0.03 18.4057 12.575 3.31134 67.5881 12.575 150.858 1 0 3 0.0221748 0.00756223 0.0162474 10.2937 4.40951 -8.06749 
915 58 2 12.01 0.14 23.4156 10.1579 6.07313 121.78 10.1579 6.07313 2 0 0 -0.00308397 -0.0040004 -0.00118193 -26.5716 -20.5221 -18.4037 
5713 358 1 16 -0.4 19.1821 15.215 1.03948 19.1821 113.58 -48.1429 0 2 -1 0.00126754 0.00323959 0.00209133 14.6537 24.4718 3.28404 
4986 312 3 1.008 0.03 23.7254 16.1925 3.09978 23.7254 -32.9898 52.2821 0 -1 1 0.0154142 0.00230907 0.00476374 -6.06372 10.0203 15.7308 
5721 358 3 1.008 0.03 19.1488 15.4522 3.78094 19.1488 113.817 -45.4014 0 2 -1 0.0170878 -0.002221 0.0145727 -18.8649 3.14442 -7.65723 
5716 358 2 12.01 0.14 18.2776 15.8818 3.22438 18.2776 114.246 -45.958 0 2 -1 0.00426378 0.000638847 -0.00839421 -27.3258 -4.29291 59.6009 
5727 358 3 1.008 0.03 16.8806 14.6701 5.31018 16.8806 113.035 -43.8722 0 2 -1 0.00708491 -0.00311408 -0.00997058 -10.5864 13.8233 -3.54242 
923 58 3 1.008 0.03 20.8173 10.6622 6.92002 119.182 10.6622 6.92002 2 0 0 0.0163715 -0.0215928 -0.0280323 17.4831 18.441 -7.64213 
365 23 3 1.008 0.03 1.95066 24.9074 1.13007 1.95066 24.9074 -48.0523 0 0 -1 -0.00371832 -0.00359712 0.00334644 0.0978661 -23.7224 -1.27256 
9868 619 8 19 -0.16 1.08929 18.1614 0.703754 1.08929 67.3437 0.703754 0 1 0 -0.000956385 0.000494325 0.00333688 -5.89435 -45.6569 -21.9892 
363 23 3 1.008 0.03 2.02791 24.7144 2.76833 2.02791 24.7144 -46.414 0 0 -1 -0.000492594 -0.00499952 0.00548822 0.174522 -1.8278 18.953 
1802 113 3 1.008 0.03 6.80384 16.9748 6.2867 6.80384 16.9748 6.2867 0 0 0 0.0121741 0.00313606 -0.0191595 14.6601 10.085 -11.1344 
1796 113 2 12.01 0.14 7.3006 17.3436 5.35311 7.3006 17.3436 5.35311 0 0 0 0.00604602 -0.0065193 0.00399692 -18.151 3.25793 16.0643 
1807 113 3 1.008 0.03 4.87121 16.9438 3.3025 4.87121 16.9438 3.3025 0 0 0 -0.0199659 -0.00776507 0.0164831 -4.07157 -12.4724 -3.44875 
3082 193 3 1.008 0.03 6.3291 20.0732 0.993002 6.3291 20.0732 0.993002 0 0 0 0.00388497 -0.0263645 0.000822699 -15.569 -7.72171 9.10319 
364 23 3 1.008 0.03 1.88783 23.1532 1.89107 1.88783 23.1532 -47.2913 0 0 -1 -0.0143249 0.00184357 -0.020228 7.1908 17.7537 -4.42977 