ITEM: TIMESTEP
1350000
ITEM: NUMBER OF ATOMS
10479
ITEM: BOX BOUNDS pp pp pp
4.0882558190751794e-01 4.9591174418091420e+01
4.0882558190751794e-01 4.9591174418091420e+01
4.0882558190751794e-01 4.9591174418091420e+01
ITEM: ATOMS id mol type mass q x y z xu yu zu ix iy iz vx vy vz fx fy fz 
9021 564 3 1.008 0.03 5.77273 5.15153 5.73314 5.77273 54.3339 -43.4492 0 1 -1 -0.00883354 -0.00851504 -0.00621301 1.96265 1.42463 -4.52044 
9015 564 3 1.008 0.03 3.99282 2.79095 3.67954 3.99282 51.9733 -45.5028 0 1 -1 0.00788868 0.0120592 -0.00656818 9.92759 6.99878 9.91333 
9011 564 2 12.01 0.14 4.60411 3.62065 4.09483 4.60411 52.803 -45.0875 0 1 -1 -0.00408844 -0.00439903 0.00183234 -8.37769 -26.4128 -25.7575 
9009 564 1 16 -0.4 5.06308 3.24259 5.36459 5.06308 52.4249 -43.8178 0 1 -1 -0.00231735 -0.00814623 -0.00732587 -6.15018 -19.1341 4.18788 
4287 268 3 1.008 0.03 4.60307 0.451642 3.28575 152.15 -48.7307 -95.0789 3 -1 -2 -0.00806278 -0.0303203 -0.0137515 -27.8798 11.6005 -3.08981 
9013 564 2 12.01 0.11 5.3696 4.28288 6.24217 5.3696 53.4652 -42.9402 0 1 -1 0.0022409 -0.00027743 -0.00108452 -47.3994 45.5947 -10.5451 
9019 564 3 1.008 0.03 4.51286 4.67964 6.87026 4.51286 53.862 -42.3121 0 1 -1 0.0195942 -0.000953003 -0.0030908 19.0856 -17.7851 -16.4904 
9016 564 3 1.008 0.03 3.88994 4.42261 4.13639 3.88994 53.605 -45.046 0 1 -1 -0.0116309 0.0110143 -0.0097166 -0.871375 14.317 -1.50097 
9017 564 3 1.008 0.03 6.60595 3.05344 3.34042 6.60595 52.2358 -45.8419 0 1 -1 -0.0208157 -0.0118479 0.0276659 -11.8188 13.3342 -4.55883 
9012 564 2 12.01 0.14 5.79085 3.78467 3.11403 5.79085 52.967 -46.0683 0 1 -1 0.00206731 -0.00371079 -0.00477693 27.8291 52.3041 20.1222 
9010 564 1 16 -0.4 6.20178 5.21287 3.22548 6.20178 54.3952 -45.9569 0 1 -1 -0.00223994 0.0009055 -0.000905107 -15.3731 -40.7832 11.9023 
9018 564 3 1.008 0.03 5.50043 3.68821 2.08784 5.50043 52.8706 -47.0945 0 1 -1 0.0141965 -0.00386186 -0.0160141 -5.41303 -9.11074 -11.1576 
2172 136 3 1.008 0.03 3.74922 7.36999 5.71631 102.114 7.36999 5.71631 2 0 0 -0.00111127 -0.0183558 0.0174225 4.40414 -1.55445 1.46526 
2168 136 3 1.008 0.03 5.90056 7.9367 6.34326 104.265 7.9367 6.34326 2 0 0 -0.0112649 -0.00653889 -0.0198295 -1.12754 8.60346 -2.2419 
439 28 3 1.008 0.03 3.52578 1.87294 7.37297 101.89 100.238 154.92 2 2 3 -0.00510612 -0.0203282 -0.0107473 -14.5405 -11.3894 15.0566 
2581 162 2 12.01 0.11 7.00185 1.01949 6.40452 7.00185 1.01949 55.5869 0 0 1 0.00138027 -0.0014346 0.00562477 -71.9844 -32.5268 9.33691 
4872 305 3 1.008 0.03 3.27369 3.17777 0.898639 101.638 52.3601 -48.2837 2 1 -1 -0.0207035 -0.0340163 -0.0133407 5.91484 -11.3883 -34.9311 
9023 564 3 1.008 0.03 7.58989 5.40376 1.67584 7.58989 54.5861 -47.5065 0 1 -1 -0.0104453 0.00481271 -0.0151666 -7.26586 -0.491789 16.6932 
3272 205 3 1.008 0.03 7.87007 6.10591 7.06196 -41.3123 6.10591 56.2443 -1 0 1 -0.00322942 -0.000941212 0.00189399 -6.1155 14.2371 -27.3158 
2589 162 3 1.008 0.03 6.69595 0.557687 5.4557 6.69595 0.557687 54.638 0 0 1 0.0197001 -0.00957922 0.0249359 13.9972 3.58532 0.792438 
9022 564 3 1.008 0.03 8.33705 4.96854 3.18625 8.33705 54.1509 -45.9961 0 1 -1 -0.0110227 -0.00414751 0.0090457 -10.6972 4.78369 7.53976 
9014 564 2 12.01 0.11 7.49482 5.55007 2.7781 7.49482 54.7324 -46.4043 0 1 -1 -0.00189087 -0.00726747 0.0005883 18.0899 6.73335 -38.3075 
9020 564 3 1.008 0.03 6.12874 3.95841 6.82705 6.12874 53.1408 -42.3553 0 1 -1 -0.0288513 -0.00368887 -0.000713018 34.0777 -16.6634 37.2467 
9024 564 3 1.008 0.03 7.65836 6.64202 2.89885 7.65836 55.8244 -46.2835 0 1 -1 -0.00287946 -0.0271073 -0.0257577 0.693072 -14.9348 5.16163 
2587 162 3 1.008 0.03 5.9651 1.14257 6.85786 5.9651 1.14257 56.0402 0 0 1 -0.0133569 0.014145 0.00313681 33.2992 14.2238 -10.3717 
779 49 3 1.008 0.03 1.23822 6.1513 1.12437 99.6029 104.516 50.3067 2 2 1 -0.0353058 -0.00351661 -0.0255921 5.16113 -13.9254 9.77003 
2165 136 2 12.01 0.11 3.55873 8.41916 5.50048 101.923 8.41916 5.50048 2 0 0 0.000381653 0.00739502 -0.00178948 -7.74797 -19.3306 36.2624 
2171 136 3 1.008 0.03 2.88191 8.38199 4.69853 101.247 8.38199 4.69853 2 0 0 0.00233622 -0.00751009 0.0200392 -22.7893 9.23988 -16.8954 
5535 346 3 1.008 0.03 0.418357 2.85227 5.17015 49.6007 -46.3301 54.3525 1 -1 1 0.00577453 -0.0192429 0.00898399 -12.5887 -1.12765 -19.5709 
771 49 2 12.01 0.14 3.17961 7.9953 1.0631 101.544 106.36 50.2455 2 2 1 0.00387822 -0.0030438 0.00239559 29.8554 -69.0503 -26.8023 
776 49 3 1.008 0.03 3.51042 7.13826 1.74212 101.875 105.503 50.9245 2 2 1 -0.00291065 0.00464624 0.0317962 -12.7425 19.5177 -26.8456 
2588 162 3 1.008 0.03 7.53847 1.91045 6.23005 7.53847 1.91045 55.4124 0 0 1 -0.000555522 0.056747 -0.000581396 10.3371 22.5139 -0.339837 
780 49 3 1.008 0.03 0.729107 7.7729 1.40891 99.0938 106.138 50.5913 2 2 1 0.00528476 0.00457263 0.0159008 -14.4542 11.6716 8.28409 
773 49 2 12.01 0.11 1.07104 7.09578 0.661308 99.4357 105.46 49.8437 2 2 1 -0.00312823 0.00637497 0.0107474 42.3726 3.87571 -26.0327 
3273 205 3 1.008 0.03 10.0157 5.96315 6.28864 -39.1666 5.96315 55.471 -1 0 1 -0.0322976 0.0197254 0.0164649 15.8946 4.30523 13.9872 
3268 205 2 12.01 0.14 10.0266 5.69652 7.36601 -39.1557 5.69652 56.5484 -1 0 1 -0.00196281 0.0039414 -0.00445437 -21.8846 1.62063 -36.6708 
730 46 3 1.008 0.03 12.3919 5.2749 1.83818 12.3919 -142.272 1.83818 0 -3 0 0.000684454 -0.00365002 -0.000319634 20.2751 11.3437 6.82185 
726 46 2 12.01 0.11 10.1703 3.1667 0.761694 10.1703 -144.38 0.761694 0 -3 0 0.00128141 0.00290636 -0.00497726 -7.3715 37.7097 41.9741 
721 46 1 16 -0.4 13.9035 3.49813 2.96803 13.9035 -144.049 2.96803 0 -3 0 0.0014735 -0.00392887 0.00194114 -41.9322 -16.3155 21.9285 
723 46 2 12.01 0.14 12.4409 3.4558 3.17186 12.4409 -144.091 3.17186 0 -3 0 -0.0054106 -0.00279777 -0.0102728 57.362 -19.1516 -11.2358 
724 46 2 12.01 0.14 11.8931 4.3701 2.09539 11.8931 -143.177 2.09539 0 -3 0 0.00854256 -0.000689106 -0.00287985 -77.6673 -10.879 -12.7015 
728 46 3 1.008 0.03 12.1917 3.74401 4.19454 12.1917 -143.803 4.19454 0 -3 0 -0.000122143 -0.0246073 -0.00710013 -0.938124 9.02397 -3.00882 
727 46 3 1.008 0.03 12.0587 2.4265 3.07759 12.0587 -145.121 3.07759 0 -3 0 0.0133691 0.00531415 -0.0170391 2.9992 8.17956 -3.91043 
729 46 3 1.008 0.03 10.9457 4.70938 2.5595 10.9457 -142.838 2.5595 0 -3 0 0.0138124 -0.00209291 0.0119124 12.8773 4.33982 -6.5045 
725 46 2 12.01 0.11 14.5862 2.76059 3.98682 14.5862 -144.786 3.98682 0 -3 0 0.00168529 -0.000700312 -0.00635627 -16.1698 36.5436 -18.7104 
731 46 3 1.008 0.03 14.3677 1.7167 3.93728 14.3677 -145.83 3.93728 0 -3 0 -0.0141173 0.00315564 -0.019424 -2.10136 -15.6576 0.873719 
733 46 3 1.008 0.03 14.3247 3.19459 4.97019 14.3247 -144.352 4.97019 0 -3 0 0.0260755 0.011747 0.000980151 10.9785 -6.56081 -6.05035 
732 46 3 1.008 0.03 15.5888 2.96594 3.64782 15.5888 -144.581 3.64782 0 -3 0 0.0026765 0.00416487 0.0156575 14.2864 -5.6001 14.1899 
4283 268 3 1.008 0.03 10.7432 1.03243 4.47349 158.29 -48.1499 -93.8912 3 -1 -2 0.0114535 -0.0102764 -0.00206107 -3.25729 -2.24765 0.371574 
9643 604 8 19 -0.16 14.1346 7.70124 1.48698 14.1346 56.8836 1.48698 0 1 0 -0.00274402 -0.00141729 0.000230253 -14.5827 4.48834 9.48106 
9642 604 8 19 -0.16 15.0435 8.42889 3.20838 15.0435 57.6112 3.20838 0 1 0 0.000712257 -0.00577874 -0.00143287 -38.16 -11.0827 14.1118 
722 46 1 16 -0.4 11.4687 3.75252 0.844599 11.4687 -143.795 0.844599 0 -3 0 0.00736496 -0.00530458 -0.00449034 22.573 -3.23399 10.7986 
734 46 3 1.008 0.03 10.1022 2.13772 1.00596 10.1022 -145.409 1.00596 0 -3 0 -0.00301622 0.0190787 0.0175359 7.27271 -16.5045 6.21158 
735 46 3 1.008 0.03 9.43156 3.73023 1.40665 9.43156 -143.817 1.40665 0 -3 0 -0.0170591 0.0150314 0.00348987 14.6372 -14.7925 -20.8709 
9641 604 7 12.01 0.35 13.8116 8.24228 2.67011 13.8116 57.4246 2.67011 0 1 0 -0.00334369 -0.000892225 -0.00287494 44.7574 27.606 -47.2272 
9644 604 8 19 -0.16 13.0743 7.35566 3.25345 13.0743 56.538 3.25345 0 1 0 0.00344692 -0.000308719 0.00388676 4.80085 -25.2587 33.4295 
1069 67 3 1.008 0.03 14.9998 5.28536 6.54412 14.9998 5.28536 55.7265 0 0 1 -0.0195649 -0.0108811 -0.0245162 -23.6513 -26.1564 -21.4092 
1057 67 1 16 -0.4 16.1001 6.95487 6.98701 16.1001 6.95487 56.1694 0 0 1 0.00334979 -0.00488737 0.00454339 -22.654 -23.7306 1.06532 
5061 317 2 12.01 0.11 16.6296 0.497894 1.40056 16.6296 98.8626 1.40056 0 2 0 0.0019655 0.00804066 0.0017518 32.4197 13.3219 -32.8886 
5069 317 3 1.008 0.03 16.5325 1.15018 2.23725 16.5325 99.5149 2.23725 0 2 0 0.0109503 0.0401997 -0.00710706 -6.06925 2.96475 15.8075 
4273 268 1 16 -0.4 9.59573 0.664208 2.80718 157.143 -48.5181 -95.5575 3 -1 -2 -0.0100712 0.00298815 -0.00304678 -45.8756 -2.69619 -42.0914 
1064 67 3 1.008 0.03 16.0536 6.36564 5.09409 16.0536 6.36564 54.2764 0 0 1 0.0118492 -0.00179215 0.0238376 12.2924 -4.72297 -3.99913 
3278 205 3 1.008 0.03 12.3456 5.00998 6.405 -36.8367 5.00998 55.5874 -1 0 1 0.0112111 0.0119487 -0.00627906 -5.36364 -7.36181 36.7497 
1061 67 2 12.01 0.11 15.503 5.65998 7.36676 15.503 5.65998 56.5491 0 0 1 0.00294669 0.00375935 -0.00157862 2.16902 94.3159 42.9879 
8943 559 3 1.008 0.03 13.2034 0.534622 0.468837 -35.9789 0.534622 0.468837 -1 0 0 0.0137519 0.00847003 -0.00859626 -3.46686 3.03722 -4.08278 
5128 321 3 1.008 0.03 17.9124 1.45439 7.09298 17.9124 50.6367 7.09298 0 1 0 0.0250368 -0.0170371 -0.0147916 1.53763 7.62327 7.89997 
9148 572 3 1.008 0.03 23.3671 2.77714 1.93829 121.732 51.9595 51.1206 2 1 1 0.0305811 -0.00861746 0.0120812 -10.9991 1.92224 -1.6684 
768 48 3 1.008 0.03 24.4443 5.50147 1.59415 122.809 5.50147 -47.5882 2 0 -1 -0.0135242 0.0192971 0.000894384 14.2669 -10.5165 3.91642 
1060 67 2 12.01 0.14 17.2045 8.10479 5.01016 17.2045 8.10479 54.1925 0 0 1 -0.00499426 0.00455433 -0.00132874 -14.9581 41.2721 30.3061 
5072 317 3 1.008 0.03 17.6997 5.2561 2.64909 17.6997 103.621 2.64909 0 2 0 0.00244099 0.022469 0.00366301 37.0353 0.523983 -47.0018 
5062 317 2 12.01 0.11 18.496 5.25032 1.78293 18.496 103.615 1.78293 0 2 0 0.00597161 -0.00205046 -0.00573356 19.2231 -25.3676 44.3008 
5071 317 3 1.008 0.03 18.4323 6.13301 1.16798 18.4323 104.498 1.16798 0 2 0 0.0291199 0.0224442 -0.0146103 -7.31104 9.46235 -0.815834 
754 48 1 16 -0.4 22.9508 6.51922 0.737461 121.316 6.51922 -48.4449 2 0 -1 -0.00115074 0.00239321 0.00163792 -9.05666 19.081 -4.22828 
766 48 3 1.008 0.03 24.265 7.2484 2.09433 122.63 7.2484 -47.088 2 0 -1 0.0482034 -0.031693 0.0077764 -3.60349 -20.4066 1.8828 
1065 67 3 1.008 0.03 17.5942 7.95798 3.98969 17.5942 7.95798 53.172 0 0 1 -0.0147973 0.00516817 0.00985297 1.34392 -6.24076 10.1435 
5065 317 3 1.008 0.03 17.8271 2.77497 2.29488 17.8271 101.14 2.29488 0 2 0 -0.0015797 -0.0167993 -0.0260122 -2.89674 2.20742 4.62567 
9149 572 3 1.008 0.03 21.6118 2.59622 1.58344 119.976 51.7786 50.7658 2 1 1 0.0336648 0.00210913 0.0122277 4.23445 0.77817 -0.647138 
175 11 3 1.008 0.03 21.9434 0.729784 5.75622 120.308 49.9121 104.121 2 1 2 -0.00233487 0.0178265 0.00684134 -2.43792 13.6496 -21.6857 
166 11 2 12.01 0.11 22.4139 1.02137 4.78006 120.779 50.2037 103.145 2 1 2 0.000192424 0.00496182 -0.000174653 47.4872 -10.099 77.851 
5063 317 3 1.008 0.03 19.0605 0.83375 1.1362 19.0605 99.1984 1.1362 0 2 0 0.0077353 0.0200549 -0.028872 -9.58954 -2.23803 -2.38341 
5123 321 2 12.01 0.14 18.1775 1.14587 6.09443 18.1775 50.3282 6.09443 0 1 0 -0.00573755 -0.00267809 -0.00255241 -2.69893 -13.6054 -11.5669 
5059 317 2 12.01 0.14 18.5124 1.61896 0.608806 18.5124 99.9837 0.608806 0 2 0 0.000766593 0.00203812 -0.00309503 46.2539 14.4756 -46.4904 
5121 321 1 16 -0.4 17.7773 2.01498 5.06513 17.7773 51.1973 5.06513 0 1 0 0.00163683 0.00117028 -0.00164782 -8.01723 34.9823 3.01541 
162 11 1 16 -0.4 23.5744 1.83078 5.11938 121.939 51.0131 103.484 2 1 2 -0.0075926 0.00436069 -0.00210151 -10.0236 -5.39523 -11.012 
6129 384 1 16 -0.4 21.862 6.97344 6.3414 -174.867 6.97344 153.888 -4 0 3 -0.000292563 0.0043226 -0.00451784 -4.7421 -6.90698 -18.0943 
169 11 3 1.008 0.03 22.4435 3.04135 6.15919 120.808 52.2237 104.524 2 1 2 -0.0139163 -0.000472452 -0.0192159 4.69618 16.388 23.2297 
5066 317 3 1.008 0.03 19.5047 2.71668 2.01524 19.5047 101.081 2.01524 0 2 0 0.00451925 -0.0167563 0.0170722 11.838 12.948 8.79304 
164 11 2 12.01 0.14 23.2743 3.17841 5.48546 121.639 52.3608 103.85 2 1 2 0.00444239 0.000962662 0.00581951 11.3206 -43.989 -0.0583576 
170 11 3 1.008 0.03 22.85 3.59789 4.64758 121.215 52.7802 103.012 2 1 2 -0.0333021 -0.00995512 -0.0220344 -13.6326 25.313 -32.7262 
5133 321 3 1.008 0.03 17.9688 3.9042 4.34669 17.9688 53.0865 4.34669 0 1 0 -0.00722906 0.00527922 -0.0307088 7.92701 7.59513 -2.3126 
5060 317 2 12.01 0.14 18.5693 2.84845 1.51547 18.5693 101.213 1.51547 0 2 0 0.00597093 -0.00035891 0.00652974 -4.19626 -6.834 10.1326 
6133 384 2 12.01 0.11 21.6717 8.26536 5.7656 -175.058 8.26536 153.313 -4 0 3 -0.00455047 -0.00466887 -0.00591335 22.7639 12.6832 40.0315 
163 11 2 12.01 0.14 24.5933 3.88239 5.88745 122.958 53.0647 104.252 2 1 2 0.00260638 -0.00309112 0.00686359 -27.0314 -20.2266 39.9349 
168 11 3 1.008 0.03 24.3671 4.80506 6.39425 122.732 53.9874 104.759 2 1 2 -0.00987726 0.0170291 -0.0105477 -2.44842 11.522 -1.36351 
6141 384 3 1.008 0.03 21.9776 8.40345 4.773 -174.752 8.40345 152.32 -4 0 3 -0.0208403 0.0208382 -0.00741099 10.1324 -10.2651 -28.7467 
176 11 3 1.008 0.03 21.7664 1.47047 4.11777 120.131 50.6528 102.482 2 1 2 -0.00688461 0.0016244 -0.00579009 -28.4909 14.2204 -26.578 
5132 321 3 1.008 0.03 19.3108 3.17908 5.39556 19.3108 52.3614 5.39556 0 1 0 -0.0115513 0.00898032 0.00337567 2.33852 20.7425 -8.70151 
5125 321 2 12.01 0.11 18.2433 3.3725 5.24542 18.2433 52.5548 5.24542 0 1 0 0.0023368 -0.00373103 -0.00216622 19.4722 -68.9772 -32.7485 
5070 317 3 1.008 0.03 19.5634 5.28385 2.22453 19.5634 103.649 2.22453 0 2 0 0.0179532 0.0246075 0.0231058 -45.2483 -0.851978 -10.0067 
761 48 3 1.008 0.03 21.4522 5.13821 1.11399 119.817 5.13821 -48.0684 2 0 -1 0.0218615 -0.00853924 -0.00685574 -1.94738 -11.8921 14.1277 
5058 317 1 16 -0.4 18.4441 4.10713 0.892153 18.4441 102.472 0.892153 0 2 0 0.00320145 -0.0031812 -0.00238877 -3.2772 15.5318 -5.1248 
9147 572 3 1.008 0.03 22.6333 1.23845 1.92197 120.998 50.4208 51.1043 2 1 1 0.00306323 -0.0131208 -0.00164578 1.33069 -26.2969 6.89118 
6139 384 3 1.008 0.03 20.6436 8.56082 5.76991 -176.086 8.56082 153.317 -4 0 3 -0.00966808 -0.0221069 -0.00676635 -11.4416 5.53544 7.1365 
5131 321 3 1.008 0.03 17.8902 3.86821 6.06084 17.8902 53.0506 6.06084 0 1 0 -0.0185734 -0.00727973 0.0137257 -21.4956 18.3109 40.7317 
9141 572 2 12.01 0.11 22.6036 2.16824 1.43077 120.968 51.3506 50.6131 2 1 1 0.00395792 -0.00568415 0.00488948 8.43688 28.6752 -6.64593 
1059 67 2 12.01 0.14 16.8041 6.81484 5.75608 16.8041 6.81484 54.9384 0 0 1 0.00423881 0.00525025 -0.00287934 -47.933 9.01109 -11.8397 
758 48 2 12.01 0.11 23.7621 6.27753 1.86248 122.127 6.27753 -47.3199 2 0 -1 -0.00231738 0.00565278 0.00584842 -15.5648 22.5271 -12.4089 
5127 321 3 1.008 0.03 19.2431 0.958216 5.99581 19.2431 50.1406 5.99581 0 1 0 -0.000111272 -0.0238265 -0.00905462 4.81182 4.7454 6.0296 
1063 67 3 1.008 0.03 17.5825 6.14295 5.97989 17.5825 6.14295 55.1622 0 0 1 -0.0136854 -0.00612742 -0.0163162 25.3095 -13.0821 -8.14485 
767 48 3 1.008 0.03 23.0745 5.97415 2.63758 121.439 5.97415 -46.5448 2 0 -1 -0.0189209 0.0172824 -0.0106874 4.10113 -2.10483 13.5743 
2162 136 1 16 -0.4 7.96071 9.58748 6.599 106.325 9.58748 6.599 2 0 0 0.00213585 -0.0033112 0.00137503 25.5144 -3.37557 -29.0553 
7277 455 3 1.008 0.03 0.667056 16.1507 3.64752 99.0318 -33.0316 52.8299 2 -1 1 -0.0181848 0.0121912 -0.0325423 10.1749 1.57171 -9.97 
7265 455 1 16 -0.4 1.80156 16.2549 1.87049 100.166 -32.9274 51.0528 2 -1 1 0.00783132 0.000877005 0.00709619 4.71493 -25.4675 15.1541 
2173 136 3 1.008 0.03 3.17663 8.87501 6.4276 101.541 8.87501 6.4276 2 0 0 0.022797 0.000905882 0.00515811 -11.293 -4.03473 -10.9116 
2820 177 2 12.01 0.14 1.66195 12.4908 6.76226 -47.5204 61.6731 55.9446 -1 1 1 -0.00313757 0.0011547 -0.00157717 -16.5846 2.47204 3.03739 
2163 136 2 12.01 0.14 5.65089 8.99547 6.1502 104.016 8.99547 6.1502 2 0 0 -0.000870535 0.00247193 0.0074285 27.9693 -11.9182 -6.71472 
2167 136 3 1.008 0.03 5.2608 9.4056 7.04861 103.625 9.4056 7.04861 2 0 0 -0.0130493 0.02557 -0.0134958 -0.307754 9.78734 19.0762 
2818 177 1 16 -0.4 1.85123 11.1552 7.23028 -47.3311 60.3375 56.4126 -1 1 1 -0.00405412 -0.00541483 0.00241373 -6.81917 0.661357 -12.1331 
2161 136 1 16 -0.4 4.68638 9.10074 5.15944 103.051 9.10074 5.15944 2 0 0 -0.000844292 0.00472233 0.0018306 14.3787 11.4634 -24.7103 
2164 136 2 12.01 0.14 6.90007 9.74594 5.6458 105.265 9.74594 5.6458 2 0 0 0.000644099 -0.00227431 -0.00366491 -9.12925 -8.34215 25.0127 
9077 568 2 12.01 0.11 3.7575 12.9168 2.94001 52.9398 111.281 101.305 1 2 2 0.00650266 0.00106053 0.00218207 -12.5375 -19.695 53.3417 
9085 568 3 1.008 0.03 4.14496 13.2597 3.94567 53.3273 111.624 102.31 1 2 2 0.0110672 -0.0203967 -0.00522997 -9.21682 -13.7133 -22.0037 
2169 136 3 1.008 0.03 7.10139 9.40345 4.63969 105.466 9.40345 4.63969 2 0 0 -0.0146514 0.0278245 0.00289269 10.1736 -5.09107 -3.47308 
2170 136 3 1.008 0.03 6.67308 10.788 5.56566 105.038 10.788 5.56566 2 0 0 -0.0246009 0.0155083 -0.0131521 -2.10189 14.1293 -1.45625 
9079 568 3 1.008 0.03 6.16294 12.2468 3.64576 55.3453 110.611 102.01 1 2 2 0.0221593 -0.0186087 -0.00457323 2.07192 -0.735582 -8.96001 
9075 568 2 12.01 0.14 5.72231 11.6892 2.80556 54.9047 110.054 101.17 1 2 2 0.00273843 0.00240237 -0.00356988 38.0656 24.895 13.1198 
9073 568 1 16 -0.4 4.83603 12.541 2.14053 54.0184 110.906 100.505 1 2 2 -0.00109979 -0.00709357 0.00415031 -1.49831 12.3786 -20.3024 
2825 177 3 1.008 0.03 2.51645 12.8659 6.16035 -46.6659 62.0482 55.3427 -1 1 1 -0.00945805 0.00508735 0.0290818 -9.95904 -8.66241 5.39295 
9083 568 3 1.008 0.03 3.19092 13.8175 2.65169 52.3733 112.182 101.016 1 2 2 -0.00789518 -0.0145102 -0.00623879 8.89616 -25.1125 -20.2342 
3791 237 3 1.008 0.03 5.89948 15.0351 2.06232 5.89948 64.2174 2.06232 0 1 0 -0.0129021 -0.00619296 0.00167181 -27.4449 -6.20378 -3.81289 
9074 568 1 16 -0.4 7.99446 11.9731 2.01439 57.1768 110.338 100.379 1 2 2 0.00689019 -0.00499648 -0.00341122 6.82486 -0.5946 -1.2361 
3782 237 2 12.01 0.11 6.93131 15.0906 2.25099 6.93131 64.273 2.25099 0 1 0 -0.00976376 -0.0019208 -0.00319493 22.2391 22.2548 -28.9477 
9076 568 2 12.01 0.14 6.8175 11.1856 1.87541 55.9998 109.55 100.24 1 2 2 0.00725451 -0.00275758 -0.0144622 12.5646 36.1422 -15.204 
9868 619 8 19 -0.16 5.05554 15.4778 5.51169 5.05554 64.6601 5.51169 0 1 0 -0.00376406 -0.00258818 -0.00494032 -7.35457 18.2044 0.610475 
3790 237 3 1.008 0.03 7.13479 14.5527 3.14349 7.13479 63.735 3.14349 0 1 0 -0.00707993 -0.024867 -0.0072961 2.96763 -12.7715 13.2082 
9081 568 3 1.008 0.03 7.05676 10.1553 2.03195 56.2391 108.52 100.397 1 2 2 -0.0234617 0.017708 0.0111897 -0.875971 -15.9697 -0.841485 
9084 568 3 1.008 0.03 3.15095 11.9488 3.09141 52.3333 110.314 101.456 1 2 2 0.00774328 -0.00314758 -0.0102318 9.84956 42.6062 -3.69095 
9080 568 3 1.008 0.03 5.33653 10.8869 3.32724 54.5189 109.252 101.692 1 2 2 -0.00887745 0.0120021 0.0298197 -29.2245 -31.4814 8.80364 
9082 568 3 1.008 0.03 6.57906 11.4308 0.839581 55.7614 109.795 99.2043 1 2 2 -0.0111615 0.00513588 -0.00227449 -13.0888 -15.2717 -1.5524 
775 49 3 1.008 0.03 2.72077 8.62166 1.72 101.085 106.986 50.9024 2 2 1 -0.0177882 -0.0150708 0.0267678 -19.7115 39.3661 27.5597 
717 45 3 1.008 0.03 5.05976 13.6155 7.12637 5.05976 -84.7492 7.12637 0 -2 0 -0.0290435 -0.00389028 0.00357714 -8.80516 -7.21258 -12.0891 
7276 455 3 1.008 0.03 2.30292 16.7891 3.87209 100.668 -32.3933 53.0544 2 -1 1 -0.00674711 -0.022678 -0.0141347 -8.26905 -23.1941 -11.9978 
7275 455 3 1.008 0.03 1.95006 15.0174 3.52408 100.315 -34.165 52.7064 2 -1 1 -0.0131724 0.00405009 -0.0247288 -1.09187 4.72162 8.86773 
777 49 3 1.008 0.03 5.01069 8.65321 1.2643 103.375 107.018 50.4466 2 2 1 -0.0024662 -0.00290578 0.00753222 40.4722 8.72935 32.0968 
3792 237 3 1.008 0.03 7.45688 14.6301 1.38117 7.45688 63.8124 1.38117 0 1 0 0.00226873 0.0162184 0.00461864 -5.36975 7.0115 18.0694 
7269 455 2 12.01 0.11 1.70631 16.0402 3.27911 100.071 -33.1422 52.4615 2 -1 1 -0.00293858 0.00617013 0.00232913 -10.5297 25.3288 14.9264 
9866 619 7 12.01 0.35 4.86971 16.7944 5.71963 4.86971 65.9768 5.71963 0 1 0 3.20695e-05 -0.00510663 -0.00142424 6.37384 19.9634 -33.5837 
3778 237 1 16 -0.4 7.27059 16.4789 2.43389 7.27059 65.6613 2.43389 0 1 0 -0.0048823 -0.00105868 0.00342543 21.4451 -20.1508 21.3611 
9035 565 3 1.008 0.03 1.19345 12.3175 0.80579 1.19345 -86.0472 99.1705 0 -2 2 0.00405832 0.00248373 -0.0107058 -7.37161 11.4444 2.18971 
9036 565 3 1.008 0.03 0.582712 11.188 1.97904 0.582712 -87.1767 100.344 0 -2 2 0.0187248 0.00191027 0.00268627 -1.56093 -9.51208 -1.33885 
772 49 2 12.01 0.14 4.42739 8.6064 0.43203 102.792 106.971 49.6144 2 2 1 0.0142562 0.000276256 0.00169357 -41.8 27.1583 -47.2336 
2175 136 3 1.008 0.03 9.29681 11.0386 5.78551 107.662 11.0386 5.78551 2 0 0 0.00240651 -0.0126754 -0.0102865 -0.92715 -25.8242 4.8912 
2176 136 3 1.008 0.03 10.1487 9.59561 6.47542 108.513 9.59561 6.47542 2 0 0 0.0102994 0.0207607 -0.0266599 -12.4619 5.86162 8.11071 
1066 67 3 1.008 0.03 16.4593 8.94474 4.91463 16.4593 8.94474 54.097 0 0 1 -0.0101422 0.0255968 -0.00453527 4.53852 -32.1941 3.26312 
3660 229 3 1.008 0.03 8.79792 15.0402 5.65353 8.79792 64.2225 5.65353 0 1 0 -0.0127009 -0.0333749 0.0227486 15.7657 -3.14342 -28.7595 
9078 568 2 12.01 0.11 9.00802 11.5733 1.07672 58.1904 109.938 99.4414 1 2 2 0.00431816 0.00512209 0.00345175 -2.8249 10.265 -8.23015 
969 61 3 1.008 0.03 14.4049 16.7116 5.73292 14.4049 16.7116 54.9153 0 0 1 -0.0131422 -0.0210863 0.00811861 -0.604596 -5.037 5.06089 
2166 136 2 12.01 0.11 9.23503 9.9257 5.96012 107.6 9.9257 5.96012 2 0 0 0.000415858 -0.00237865 0.00171434 -4.39001 21.8043 4.20477 
3661 229 3 1.008 0.03 9.01743 13.8208 4.34551 9.01743 63.0031 4.34551 0 1 0 -0.00708935 -0.0182279 0.00409069 1.96646 -8.49333 4.75736 
2174 136 3 1.008 0.03 9.39363 9.45148 4.99705 107.758 9.45148 4.99705 2 0 0 -0.00185048 -0.00787809 -0.00487076 -9.14247 -2.25444 -5.09128 
3659 229 3 1.008 0.03 10.4006 14.6476 5.0854 10.4006 63.8299 5.0854 0 1 0 -0.0293366 -0.00955161 -0.0221384 28.8089 -15.6616 17.3508 
3653 229 2 12.01 0.11 9.41959 14.7447 4.74819 9.41959 63.9271 4.74819 0 1 0 0.00308632 -0.00417759 -0.0073899 -31.8862 -1.94914 24.5087 
3656 229 3 1.008 0.03 9.80638 14.3396 2.27446 9.80638 63.5219 2.27446 0 1 0 0.00579528 0.00811816 0.00680565 0.299683 -17.9682 -16.0324 
3651 229 2 12.01 0.14 10.3553 15.1645 2.65816 10.3553 64.3469 2.65816 0 1 0 -0.0058372 -0.00244777 0.00129263 21.7651 25.5118 -4.43017 
3655 229 3 1.008 0.03 11.382 14.8929 2.98255 11.382 64.0753 2.98255 0 1 0 -0.0168927 0.0118129 0.0172754 -15.4695 -7.25025 1.86942 
9639 604 6 16 -0.53 11.5542 9.26727 2.13552 11.5542 58.4496 2.13552 0 1 0 0.00648918 -0.00290668 -0.00103415 -9.4701 6.00188 -6.85554 
9638 604 5 32.06 1.02 12.8578 9.79127 2.44512 12.8578 58.9736 2.44512 0 1 0 0.00151161 -0.00667462 0.00182503 28.1426 17.9272 -13.0901 
9646 604 6 16 -0.53 12.9193 12.3538 5.52839 12.9193 61.5362 5.52839 0 1 0 0.00597136 -0.00439878 -0.00295483 12.6111 -9.04404 -9.81625 
9637 604 4 14.01 -0.66 12.9337 10.5044 3.84576 12.9337 59.6867 3.84576 0 1 0 0.000911501 0.00450186 -0.0046568 -2.57585 -27.2318 12.8281 
9640 604 6 16 -0.53 13.635 10.4449 1.40229 13.635 59.6273 1.40229 0 1 0 0.0032296 -0.00128946 0.00956345 -15.7964 -4.91989 2.19453 
9645 604 5 32.06 1.02 13.4929 11.8923 4.27072 13.4929 61.0746 4.27072 0 1 0 0.00530909 -0.00470215 0.00225524 -29.534 53.5394 -6.20753 
9647 604 6 16 -0.53 13.4744 12.8836 3.19688 13.4744 62.066 3.19688 0 1 0 -0.00853028 0.000832378 0.00552169 16.422 -11.8989 14.643 
9648 604 7 12.01 0.35 15.2306 11.4832 4.67695 15.2306 60.6655 4.67695 0 1 0 0.00226235 0.000327033 -0.000803406 20.6312 -39.7989 12.5737 
9650 604 8 19 -0.16 15.6856 10.6765 3.69509 15.6856 59.8588 3.69509 0 1 0 -0.0022758 0.0028025 -0.00603747 5.73774 14.7438 22.7019 
9651 604 8 19 -0.16 16.1548 12.4303 4.89159 16.1548 61.6127 4.89159 0 1 0 0.00648164 -0.00374467 -0.00232088 -25.2726 9.33785 -17.3143 
3649 229 1 16 -0.4 9.55632 15.658 3.70688 9.55632 64.8403 3.70688 0 1 0 -0.00289435 0.00227555 0.00356399 -10.7652 25.7599 -1.60725 
9649 604 8 19 -0.16 15.2665 10.7958 5.83922 15.2665 59.9782 5.83922 0 1 0 0.0014898 -0.00231246 0.00197856 -2.10382 1.4728 -26.2589 
970 61 3 1.008 0.03 16.0551 16.1814 5.40295 16.0551 16.1814 54.5853 0 0 1 -0.0119798 -0.0326079 -0.0141926 -0.824858 13.8644 -6.30427 
7807 488 3 1.008 0.03 16.6895 13.3414 0.885164 65.8718 13.3414 0.885164 1 0 0 -0.000185666 -0.0110785 -0.00713643 7.58472 -1.11654 23.033 
9088 568 3 1.008 0.03 9.94633 12.1557 1.25998 59.1287 110.52 99.6247 1 2 2 -0.0306817 -0.00587133 -0.0104175 -14.8696 -13.3727 -5.04528 
9086 568 3 1.008 0.03 9.16855 10.5108 1.21758 58.3509 108.876 99.5823 1 2 2 0.00229048 -0.00506737 0.0034854 10.4924 -3.261 2.04963 
10150 638 6 16 -0.53 14.6809 16.7449 1.61389 14.6809 16.7449 50.7962 0 0 1 -0.000300486 -0.00268759 -0.0001421 3.57839 17.0926 -5.19362 
718 45 3 1.008 0.03 10.2402 12.9045 6.79346 10.2402 -85.4602 6.79346 0 -2 0 0.00250869 0.00807594 0.000216182 -26.2092 -12.2413 -33.4655 
3658 229 3 1.008 0.03 10.2071 16.0564 0.643062 10.2071 65.2387 0.643062 0 1 0 -0.00383004 0.0103331 0.0039282 -3.40719 -2.83657 -7.9393 
3652 229 2 12.01 0.14 10.5493 16.3168 1.63247 10.5493 65.4991 1.63247 0 1 0 0.00533436 -0.00108781 -0.00163067 -28.8289 2.38922 21.0655 
3657 229 3 1.008 0.03 11.5729 16.4741 1.59441 11.5729 65.6564 1.59441 0 1 0 -0.00540507 -0.0270466 0.0161891 37.9026 5.58398 -9.32281 
974 61 3 1.008 0.03 15.4157 14.33 6.71702 15.4157 14.33 55.8994 0 0 1 -0.0249813 -0.0205379 -0.00276765 -5.8895 27.7545 32.2631 
5468 342 3 1.008 0.03 12.5596 9.09097 7.04733 12.5596 58.2733 7.04733 0 1 0 0.00133437 0.0254029 0.0376191 6.01364 3.22002 13.7891 
962 61 1 16 -0.4 15.7764 16.34 7.34612 15.7764 16.34 56.5285 0 0 1 -0.00448412 -0.00665463 -0.0054642 -20.7759 -0.415112 3.80547 
2771 174 2 12.01 0.14 24.9508 13.6214 1.34178 123.315 -84.7433 1.34178 2 -2 0 0.00618448 -0.00561146 -0.00594872 -11.6482 -1.05335 43.5401 
2253 141 3 1.008 0.03 17.2152 12.0476 7.32536 17.2152 12.0476 56.5077 0 0 1 0.0169016 -0.0267193 -0.0122831 3.58107 -3.63924 -1.39949 
9003 563 3 1.008 0.03 24.2564 10.7086 4.98162 73.4388 59.891 103.346 1 1 2 -0.00137759 0.01199 -0.012868 6.68849 4.30844 11.2114 
2775 174 3 1.008 0.03 24.9908 13.8088 2.43831 123.356 -84.5559 2.43831 2 -2 0 -0.00304525 0.0051964 0.0176812 -1.30362 -4.93565 -14.4302 
2772 174 2 12.01 0.14 23.5531 14.0574 0.880111 121.918 -84.3073 0.880111 2 -2 0 0.0046927 -0.00323005 0.00727442 17.1231 -17.4274 24.3272 
6140 384 3 1.008 0.03 22.3295 8.98273 6.32454 -174.4 8.98273 153.872 -4 0 3 -0.00846293 0.00184004 0.0290089 -19.5901 -10.7773 -9.57365 
2248 141 3 1.008 0.03 19.1078 14.0599 6.72709 19.1078 14.0599 55.9094 0 0 1 0.0055644 0.0188741 0.00961761 6.06447 -4.90546 12.1965 
2778 174 3 1.008 0.03 23.1886 14.7721 1.59917 121.553 -83.5926 1.59917 2 -2 0 0.0232496 -0.00481932 -0.00110362 -4.02551 11.0372 1.54575 
2254 141 3 1.008 0.03 19.4928 16.1206 5.78298 19.4928 16.1206 54.9653 0 0 1 0.00481756 0.022143 0.0267708 -4.93073 -9.142 -5.81051 
10147 638 4 14.01 -0.66 17.0699 16.6544 0.756271 17.0699 16.6544 49.9386 0 0 1 0.00847403 0.00166916 2.44555e-05 -10.7498 16.5299 -8.31804 
7163 448 3 1.008 0.03 20.0219 12.0715 5.72751 20.0219 -37.1108 54.9099 0 -1 1 -0.0218704 -0.0092205 -0.0105854 19.3553 2.36076 9.76765 
3983 249 3 1.008 0.03 23.2268 14.7864 5.48583 72.4092 -34.396 202.215 1 -1 4 -0.0107221 0.0298373 0.00191257 7.14952 10.0938 1.31421 
3984 249 3 1.008 0.03 21.6782 14.5327 5.81701 70.8605 -34.6497 202.546 1 -1 4 0.0161942 0.0364627 0.000215924 -10.6795 15.9196 -13.4807 
7164 448 3 1.008 0.03 18.7335 12.8261 4.8882 18.7335 -36.3562 54.0706 0 -1 1 0.0101176 -0.00965845 0.0278857 0.292616 7.994 -1.85068 
3974 249 2 12.01 0.11 22.301 15.3574 5.42387 71.4834 -33.8249 202.153 1 -1 4 0.00108099 0.00320035 -0.000671516 20.4389 -51.5372 12.8508 
3970 249 1 16 -0.4 22.3279 16.4421 6.2793 71.5102 -32.7402 203.009 1 -1 4 -0.0039653 0.000501491 -0.00282464 -21.91 -0.563408 13.7302 
7167 448 3 1.008 0.03 22.845 10.9126 1.4909 22.845 -38.2698 50.6732 0 -1 1 -0.012632 0.0105755 0.000828705 23.1859 8.97193 -18.1015 
7158 448 2 12.01 0.11 22.4714 10.2958 2.25417 22.4714 -38.8865 51.4365 0 -1 1 0.00219809 0.00230813 -0.00511307 -20.7095 10.6899 10.3511 
7162 448 3 1.008 0.03 20.846 11.7918 1.10939 20.846 -37.3905 50.2917 0 -1 1 0.0146392 0.0122347 0.019966 -4.26759 -4.26524 -9.22801 
7154 448 1 16 -0.4 21.2085 9.91398 1.81867 21.2085 -39.2684 51.001 0 -1 1 -0.00634901 -0.00493146 0.00459669 -6.47307 -42.1311 3.09892 
7156 448 2 12.01 0.14 20.3097 10.8995 1.44929 20.3097 -38.2828 50.6316 0 -1 1 -0.00462977 -0.00583639 -0.000860029 -2.99583 5.02853 -45.855 
7155 448 2 12.01 0.14 19.4329 11.326 2.56089 19.4329 -37.8564 51.7432 0 -1 1 0.00454954 -0.00351339 -0.000997294 -61.4656 7.56519 -27.4151 
7159 448 3 1.008 0.03 18.8663 10.4786 2.84215 18.8663 -38.7037 52.0245 0 -1 1 0.0110129 -0.0144704 -0.00994321 -13.9378 -16.2147 10.7637 
7160 448 3 1.008 0.03 18.7518 12.0638 2.08028 18.7518 -37.1186 51.2626 0 -1 1 0.0103938 -0.00703735 0.00865162 3.21901 -10.9132 14.1994 
7168 448 3 1.008 0.03 22.3555 10.9196 3.12489 22.3555 -38.2627 52.3072 0 -1 1 0.0159271 -0.0330147 0.00263909 4.68244 0.840439 10.8758 
7166 448 3 1.008 0.03 23.0775 9.42838 2.45289 23.0775 -39.754 51.6352 0 -1 1 0.00650957 -0.013203 -0.00481305 9.01437 -4.27375 1.19658 
10156 638 6 16 -0.53 18.2269 15.8048 2.878 18.2269 15.8048 52.0604 0 0 1 0.00173748 0.000792923 -0.00244274 -6.65067 18.8349 -16.9142 
3982 249 3 1.008 0.03 22.252 15.5904 4.37811 71.4343 -33.592 201.108 1 -1 4 0.0103297 0.00417045 -0.0142779 -15.8096 0.983282 -12.2188 
7153 448 1 16 -0.4 20.0094 11.9247 3.62521 20.0094 -37.2577 52.8076 0 -1 1 -0.00189193 -4.31242e-05 -0.0127614 56.639 14.5627 32.1312 
10159 638 8 19 -0.16 20.1193 16.6194 0.559207 20.1193 16.6194 49.7416 0 0 1 -0.00214782 -0.00398652 0.000415438 -15.663 -17.6524 -0.796652 