ITEM: TIMESTEP
4600000
ITEM: NUMBER OF ATOMS
10479
ITEM: BOX BOUNDS pp pp pp
4.0882558190751794e-01 4.9591174418091420e+01
4.0882558190751794e-01 4.9591174418091420e+01
4.0882558190751794e-01 4.9591174418091420e+01
ITEM: ATOMS id mol type mass q x y z xu yu zu ix iy iz vx vy vz fx fy fz 
7474 468 1 16 -0.4 2.5394 1.89785 3.34984 100.904 1.89785 3.34984 2 0 0 -0.00375703 -0.00291123 0.000195884 1.43437 45.2806 -21.781 
7481 468 3 1.008 0.03 4.48505 2.59399 2.83822 102.85 2.59399 2.83822 2 0 0 -0.0221385 0.00789952 0.00405427 4.61434 -0.694674 5.30051 
1423 89 3 1.008 0.03 2.42624 7.70635 5.05635 -46.7561 56.8887 54.2387 -1 1 1 -0.00749951 0.00264502 -0.0158794 -6.70257 9.9568 -11.2011 
7476 468 2 12.01 0.14 3.49246 2.53903 2.41055 101.857 2.53903 2.41055 2 0 0 0.00260224 -0.0041159 -0.00290247 -18.099 -25.4273 1.94878 
1417 89 3 1.008 0.03 1.40196 7.05217 2.21292 -47.7804 56.2345 51.3953 -1 1 1 -0.0243066 0.0366609 0.010141 10.7743 -6.19638 5.18069 
1412 89 2 12.01 0.14 2.45288 6.83521 2.49512 -46.7295 56.0176 51.6775 -1 1 1 0.00184188 -0.00447738 -0.00108792 0.354504 -32.7063 -7.87006 
7475 468 2 12.01 0.14 3.5157 1.76604 1.07082 101.88 1.76604 1.07082 2 0 0 0.00273549 -0.00480878 0.003981 -4.40911 23.0584 -5.56188 
1411 89 2 12.01 0.14 3.24918 6.40552 1.21359 -45.9332 55.5879 50.3959 -1 1 1 -0.00689481 0.00388944 -0.00224585 -23.9282 29.5671 5.61592 
7482 468 3 1.008 0.03 3.28991 3.57045 2.11686 101.655 3.57045 2.11686 2 0 0 -0.0149866 -0.0157593 0.0114086 -18.2138 -10.8873 15.9927 
7480 468 3 1.008 0.03 2.54775 1.29685 0.853555 100.912 1.29685 0.853555 2 0 0 -0.0215074 0.0021734 0.00558045 6.62506 -5.82412 4.73858 
1418 89 3 1.008 0.03 2.51308 5.96466 3.18722 -46.6693 55.147 52.3696 -1 1 1 0.0264135 0.00380945 0.0101641 -9.34132 17.585 -7.62665 
6760 423 3 1.008 0.03 0.619442 4.81931 3.86102 0.619442 4.81931 -45.3213 0 0 -1 -0.00650037 0.00597897 0.0263392 20.1112 18.2799 -9.60318 
2938 184 3 1.008 0.03 6.6436 5.53753 5.79076 -42.5388 54.7199 5.79076 -1 1 0 -0.00500973 -0.00727651 -0.00814649 9.47615 9.1872 1.88758 
3278 205 3 1.008 0.03 2.43612 4.71041 5.85579 2.43612 53.8928 104.22 0 1 2 -0.0039826 0.00441795 -0.000735121 26.6476 2.33732 -11.599 
1415 89 3 1.008 0.03 3.81387 7.25855 0.87389 -45.3685 56.4409 50.0562 -1 1 1 -0.00607111 0.00279279 0.0206743 -7.50752 15.4489 -4.2788 
1409 89 1 16 -0.4 4.22588 5.42598 1.37489 -44.9565 54.6083 50.5572 -1 1 1 0.00912354 -0.0126229 0.00217657 -12.6085 -3.50965 39.13 
6862 429 3 1.008 0.03 7.82887 3.17829 6.94019 -41.3535 3.17829 203.67 -1 0 4 0.0272863 0.0106863 0.00056011 -37.5262 24.5738 29.3478 
2943 184 3 1.008 0.03 7.40122 8.28953 7.01771 -41.7811 57.4719 7.01771 -1 1 0 0.0219959 0.0186575 -0.0189159 13.4316 -22.534 8.5672 
2935 184 3 1.008 0.03 6.36 5.17184 3.51447 -42.8224 54.3542 3.51447 -1 1 0 -0.0156088 -0.0134103 -0.00117611 8.88337 12.8339 -12.7074 
2937 184 3 1.008 0.03 6.37884 7.09812 5.07554 -42.8035 56.2805 5.07554 -1 1 0 -0.0010201 0.00749798 0.00848432 -10.3144 13.1582 5.69999 
1410 89 1 16 -0.4 2.99014 7.99575 3.07842 -46.1922 57.1781 52.2608 -1 1 1 -0.003616 0.00377595 -0.00288414 27.1903 -1.14105 -19.8566 
2932 184 2 12.01 0.14 7.11319 6.33259 5.18531 -42.0692 55.5149 5.18531 -1 1 0 0.00149846 0.00716879 0.00123602 1.79989 -24.0256 -37.6697 
2936 184 3 1.008 0.03 8.0552 4.86986 3.76074 -41.1272 54.0522 3.76074 -1 1 0 -0.00978699 0.0308294 0.0279029 -13.1004 20.2329 -0.387244 
2931 184 2 12.01 0.14 7.30983 5.70984 3.70599 -41.8725 54.8922 3.70599 -1 1 0 0.00195689 -0.000361369 0.000645176 4.41707 -13.4039 47.3014 
2929 184 1 16 -0.4 7.7538 6.61475 2.68037 -41.4286 55.7971 2.68037 -1 1 0 -0.00233822 -0.00225961 -0.00312527 -6.50472 3.0924 -1.48731 
3270 205 2 12.01 0.11 3.53386 4.7779 5.61039 3.53386 53.9602 103.975 0 1 2 0.00815508 -0.000247316 0.00152048 -28.6262 -4.00668 19.2616 
6762 423 3 1.008 0.03 0.79635 2.97412 5.52047 0.79635 2.97412 -43.6619 0 0 -1 -0.00717195 0.00933539 -0.00761267 -15.197 19.226 -0.809666 
3279 205 3 1.008 0.03 3.69495 4.77949 4.5604 3.69495 53.9618 102.925 0 1 2 -0.00401615 0.0104961 -0.00900873 0.8624 10.3766 -17.4503 
7279 455 3 1.008 0.03 0.607029 8.27839 6.34458 49.7894 8.27839 55.5269 1 0 1 0.028417 -0.0348975 -0.00605954 3.5189 -3.40679 -15.9388 
2939 184 3 1.008 0.03 7.42472 8.37508 1.58842 -41.7576 57.5574 1.58842 -1 1 0 -0.00708823 0.0145855 -0.00805309 -3.39315 -12.2923 17.3768 
2934 184 2 12.01 0.11 8.17461 7.47044 7.09174 -41.0077 56.6528 7.09174 -1 1 0 -0.00380392 0.00424943 -0.00576748 -25.7935 -2.30609 -43.1965 
2432 152 3 1.008 0.03 7.71356 0.887115 3.34791 -139.833 50.0695 101.713 -3 1 2 -0.023562 -0.00348682 -0.0128971 -0.848632 -14.4646 1.62421 
7478 468 2 12.01 0.11 2.89327 0.680857 3.9371 101.258 0.680857 3.9371 2 0 0 -0.00687147 -0.00776073 0.00054947 44.2095 -49.9209 -8.28723 
2930 184 1 16 -0.4 8.30599 6.85689 5.77159 -40.8764 56.0392 5.77159 -1 1 0 0.00325791 0.00326802 0.00249181 6.63657 4.57786 14.7829 
7473 468 1 16 -0.4 4.62872 0.93142 1.21122 102.993 0.93142 1.21122 2 0 0 0.0010312 0.0030366 0.00467173 12.0188 -26.1808 -14.034 
7486 468 3 1.008 0.03 3.79496 0.745775 4.60389 102.16 0.745775 4.60389 2 0 0 -0.00232899 0.00792529 -0.00440011 -20.9095 5.06992 -10.1416 
1414 89 2 12.01 0.11 2.35221 8.43467 4.21768 -46.8301 57.617 53.4 -1 1 1 -0.00726356 0.000421961 -0.00221739 -2.44925 40.6694 18.4641 
2933 184 2 12.01 0.11 6.94895 7.77384 2.40402 -42.2334 56.9562 2.40402 -1 1 0 -0.0017641 0.00446262 0.00495368 8.53666 25.3296 12.8347 
2941 184 3 1.008 0.03 6.8751 8.44211 3.32016 -42.3072 57.6245 3.32016 -1 1 0 0.00239132 -0.0158233 0.0212074 1.22328 -17.6941 -26.2526 
1416 89 3 1.008 0.03 2.51518 6.15196 0.435505 -46.6672 55.3343 49.6179 -1 1 1 0.0151011 -0.0167333 0.0163913 7.5861 -5.76016 5.17338 
3266 205 1 16 -0.4 4.13152 5.85012 6.32529 4.13152 55.0325 104.69 0 1 2 0.00030405 0.000173143 -0.00541356 1.81581 1.82143 -11.9029 
3280 205 3 1.008 0.03 3.98812 3.84528 5.89432 3.98812 53.0276 104.259 0 1 2 0.0193957 0.0283136 0.0107781 2.63501 -9.90117 4.2035 
2940 184 3 1.008 0.03 5.94772 7.58684 2.01281 -43.2346 56.7692 2.01281 -1 1 0 -0.00504608 0.0134114 0.00688014 0.403822 -7.88626 7.73631 
6864 429 3 1.008 0.03 8.26298 2.64088 5.48758 -40.9194 2.64088 202.217 -1 0 4 0.00980237 -0.0139788 0.00804188 5.51777 -4.97551 -4.28142 
9066 567 3 1.008 0.03 5.63379 1.23238 7.29935 -43.5486 1.23238 154.846 -1 0 3 -0.00646187 -0.00066325 0.00264973 15.5661 -10.5704 -24.8691 
1421 89 3 1.008 0.03 5.65215 4.49037 0.419547 -43.5302 53.6727 49.6019 -1 1 1 -0.00819139 -0.0209931 0.0157613 18.251 -17.863 -4.94377 
7246 453 3 1.008 0.03 9.11913 3.0681 2.54255 107.484 101.433 51.7249 2 2 1 -0.0145551 -0.0123629 -0.0157356 -39.4598 21.2968 13.5089 
6854 429 2 12.01 0.11 8.63541 2.7569 6.50187 -40.5469 2.7569 203.231 -1 0 4 -0.0084084 -8.24922e-05 -0.00209362 31.3432 27.2159 -50.4773 
7982 499 3 1.008 0.03 10.9576 7.25381 0.52697 -87.4071 -91.1109 49.7093 -2 -2 1 -0.000496327 -0.00231938 0.00336282 -6.26558 -22.1244 7.71303 
7247 453 3 1.008 0.03 9.94395 1.61791 2.80787 108.309 99.9826 51.9902 2 2 1 -0.0277424 0.00831717 -0.0114025 5.36505 14.9694 -13.4775 
7238 453 2 12.01 0.11 10.0517 2.6609 2.42935 108.416 101.026 51.6117 2 2 1 0.00728374 -0.00542797 0.000968958 56.4977 -32.1985 -27.0453 
7248 453 3 1.008 0.03 10.8134 3.11553 3.11831 109.178 101.48 52.3007 2 2 1 -0.0218226 -0.0223527 0.00709271 -17.6935 -2.0818 -18.4869 
7745 485 1 16 -0.4 12.6265 6.47846 4.89053 12.6265 154.026 4.89053 0 3 0 -0.00340227 0.00669835 0.0104289 -7.2169 -15.2335 -13.615 
7749 485 2 12.01 0.11 11.9505 5.5473 4.00765 11.9505 153.094 4.00765 0 3 0 -0.000959894 0.00201531 0.00795334 32.3175 25.1364 -1.00712 
7757 485 3 1.008 0.03 12.6577 5.14861 3.29587 12.6577 152.696 3.29587 0 3 0 0.0277732 -0.0232068 0.021145 9.68996 -4.06446 0.900817 
7755 485 3 1.008 0.03 11.5787 4.71449 4.55964 11.5787 152.262 4.55964 0 3 0 -0.00549998 -0.0105784 0.00205122 -13.5086 -12.0246 4.762 
7756 485 3 1.008 0.03 11.2563 6.01042 3.32013 11.2563 153.557 3.32013 0 3 0 0.0152685 -0.00818608 0.0119874 -14.9796 4.26465 7.81705 
7747 485 2 12.01 0.14 11.8136 6.78849 6.00612 11.8136 154.336 6.00612 0 3 0 -0.00467343 -0.000432575 0.00378839 25.1472 -15.7529 -17.691 
6858 429 3 1.008 0.03 10.6236 1.28056 5.73348 -38.5588 1.28056 202.463 -1 0 4 0.0246065 0.00724104 -0.00465774 -18.2845 -6.83132 10.928 
7751 485 3 1.008 0.03 10.9738 7.26299 5.64955 10.9738 154.81 5.64955 0 3 0 -0.00828679 -0.0356525 -0.0301444 -36.6977 20.2383 -9.99301 
4362 273 3 1.008 0.03 15.3269 2.93121 3.5301 15.3269 2.93121 200.259 0 0 4 -0.00133723 0.00912425 0.00343132 -9.76909 -2.15883 0.362772 
4360 273 3 1.008 0.03 16.2133 4.99805 2.565 16.2133 4.99805 199.294 0 0 4 -0.00692422 0.0142301 -0.00510067 13.4077 -15.5446 -1.33934 
4356 273 2 12.01 0.14 16.1127 3.47212 4.03332 16.1127 3.47212 200.763 0 0 4 -6.88783e-05 0.00170683 0.00398347 13.9388 -18.524 7.92337 
4361 273 3 1.008 0.03 15.7244 4.16881 4.754 15.7244 4.16881 201.483 0 0 4 0.00357109 -0.00113689 -0.0171105 -15.9331 7.53048 1.31666 
7748 485 2 12.01 0.14 12.5226 7.60774 6.9929 12.5226 155.155 6.9929 0 3 0 -0.000562933 0.00188211 0.00444347 37.5759 -33.9577 2.62578 
8791 550 3 1.008 0.03 15.0412 8.15347 5.16509 -83.3235 204.883 54.3474 -2 4 1 0.00859411 0.0230881 0.0187187 25.3039 -12.3433 17.6543 
7753 485 3 1.008 0.03 13.0293 8.45679 6.54906 13.0293 156.004 6.54906 0 3 0 -0.00593859 -0.00685433 0.0252635 -8.41884 13.1777 3.48083 
7752 485 3 1.008 0.03 11.5378 5.92151 6.55201 11.5378 153.469 6.55201 0 3 0 0.011848 0.0101854 -0.000483116 -12.9446 -21.47 1.48577 
6852 429 2 12.01 0.14 10.2881 1.20655 6.79475 -38.8942 1.20655 203.524 -1 0 4 -0.000650427 0.00608928 0.00910754 4.29463 -24.9426 -23.6607 
6850 429 1 16 -0.4 8.90008 1.52925 7.04459 -40.2823 1.52925 203.774 -1 0 4 -0.00279893 -0.00452908 0.00265482 34.0757 -23.8982 10.74 
7241 453 3 1.008 0.03 10.1638 4.86152 1.24469 108.529 103.226 50.427 2 2 1 0.02591 -0.0120952 -0.00847418 8.8192 -7.5868 9.33893 
7234 453 1 16 -0.4 10.4043 2.76273 0.985894 108.769 101.127 50.1682 2 2 1 -0.00478271 0.00177519 -0.0068498 -7.22044 -19.1525 58.5525 
604 38 3 1.008 0.03 14.6281 2.32713 6.28031 14.6281 51.5095 6.28031 0 1 0 0.023254 0.0262698 0.00347376 -15.39 -2.40669 34.4346 
7969 499 1 16 -0.4 15.7393 6.97682 0.876699 -82.6254 -91.3879 50.059 -2 -2 1 0.000585156 0.00235643 0.00505237 21.8439 -37.876 23.0093 
6857 429 3 1.008 0.03 10.9526 1.91472 7.19561 -38.2298 1.91472 203.925 -1 0 4 -0.0109168 0.0353896 0.011151 7.91563 22.1074 19.7123 
7978 499 3 1.008 0.03 13.4826 6.68989 0.948359 -84.8821 -91.6748 50.1307 -2 -2 1 -0.00389235 0.0171693 -0.0102246 -17.1229 -21.2324 15.7579 
7970 499 1 16 -0.4 12.5827 8.51043 0.459926 -85.782 -89.8543 49.6423 -2 -2 1 0.0014487 0.00100626 0.00358786 18.7272 -23.0284 -4.9687 
7236 453 2 12.01 0.14 10.0927 4.04024 0.530231 108.457 102.405 49.7126 2 2 1 0.000879846 -0.00316586 0.00259477 4.55457 42.9297 -13.0988 
605 38 3 1.008 0.03 13.5202 3.49761 6.86829 13.5202 52.68 6.86829 0 1 0 -0.00814172 0.00350283 -0.00129669 -3.29213 -3.77579 15.0841 
7245 453 3 1.008 0.03 12.9055 2.82184 0.484481 111.27 101.187 49.6668 2 2 1 0.00148887 -0.00598471 0.00820649 -9.77891 -4.56642 7.79444 
8787 550 2 12.01 0.14 16.0468 8.22669 4.69399 -82.3179 204.956 53.8763 -2 4 1 -0.000850205 0.00187918 0.0040973 -8.97397 -5.97542 -14.351 
8792 550 3 1.008 0.03 15.8533 7.63464 3.8171 -82.5114 204.364 52.9995 -2 4 1 0.0164141 -0.00816566 -0.010504 2.30687 -5.37494 -10.231 
2942 184 3 1.008 0.03 9.10435 7.96882 7.32144 -40.078 57.1512 7.32144 -1 1 0 0.0153203 0.00487279 0.0142536 7.21796 -1.30875 7.48814 
8972 561 3 1.008 0.03 14.0478 0.992852 1.07041 -35.1345 0.992852 1.07041 -1 0 0 -0.00646464 0.0265071 -0.0116065 3.30041 -14.8623 3.92212 
597 38 2 12.01 0.11 14.144 2.67727 7.25195 14.144 51.8596 7.25195 0 1 0 -0.000244186 -0.00559359 -0.00328669 53.6133 20.3661 -34.1251 
6863 429 3 1.008 0.03 9.47383 3.50826 6.43752 -39.7085 3.50826 203.167 -1 0 4 0.00793806 -0.017457 0.02266 -16.0699 -17.4423 8.60594 
1647 103 3 1.008 0.03 24.2126 6.92976 2.39628 -123.334 6.92976 51.5786 -3 0 1 -0.0116589 -0.0195693 -0.00769166 28.7298 5.69531 -3.29545 
4028 252 3 1.008 0.03 22.5167 2.17202 1.00658 22.5167 51.3544 50.1889 0 1 1 -0.000569439 0.00124539 -0.00384144 -9.13367 -2.80492 6.24026 
8600 538 3 1.008 0.03 23.7681 0.784494 5.54953 -25.4142 49.9668 5.54953 -1 1 0 -0.00653455 0.0168229 -0.00460695 7.61835 -4.10085 19.7055 
8601 538 3 1.008 0.03 20.892 0.721318 4.89755 -28.2904 49.9037 4.89755 -1 1 0 0.00590361 -0.0149942 -0.0189087 -24.0709 1.94792 -0.259944 
4353 273 1 16 -0.4 17.5048 3.38469 2.04513 17.5048 3.38469 198.775 0 0 4 -0.00519275 0.00121284 -0.00133564 3.50703 5.67818 -2.04919 
4355 273 2 12.01 0.14 16.9101 4.23788 2.99556 16.9101 4.23788 199.725 0 0 4 0.00170915 5.11047e-05 -0.000404418 -22.355 18.7596 -0.284245 
8794 550 3 1.008 0.03 16.9395 6.85287 6.03246 -81.4252 203.582 55.2148 -2 4 1 0.0117004 -0.0295207 -0.0205171 9.81122 -0.717052 -3.58311 
8793 550 3 1.008 0.03 17.7945 8.37877 6.02454 -80.5702 205.108 55.2069 -2 4 1 0.0237877 0.00177411 0.00972777 -0.613141 4.92797 2.56252 
8788 550 2 12.01 0.14 17.3238 7.64756 5.37877 -81.0409 204.377 54.5611 -2 4 1 0.00338067 0.00322077 0.00580778 -25.1331 -0.480659 9.99611 
1638 103 2 12.01 0.11 23.1691 6.84746 2.38712 -124.378 6.84746 51.5695 -3 0 1 0.00402075 0.00325778 -0.00284991 -40.4165 -21.225 -13.7151 
4029 252 3 1.008 0.03 21.1934 2.07486 2.20712 21.1934 51.2572 51.3895 0 1 1 -0.00994072 0.0161717 -0.0162297 -9.95728 -9.70901 3.18276 
1642 103 3 1.008 0.03 20.9081 7.02297 1.02181 -126.639 7.02297 50.2042 -3 0 1 -0.00785599 0.0121836 0.000572586 4.67924 30.2137 10.9212 
4368 273 3 1.008 0.03 18.3732 2.52047 6.23357 18.3732 2.52047 202.963 0 0 4 -0.0243346 0.00221634 0.00674949 14.2739 -4.32584 6.74856 
4367 273 3 1.008 0.03 17.2404 3.8203 6.56432 17.2404 3.8203 203.294 0 0 4 0.0273642 -0.0450107 0.0167882 0.35345 -3.38163 -7.74319 
4366 273 3 1.008 0.03 18.3497 3.95738 5.19222 18.3497 3.95738 201.922 0 0 4 -0.0068616 -0.00665609 0.0137984 20.2395 5.76472 4.26492 
4358 273 2 12.01 0.11 17.7758 3.27572 5.77102 17.7758 3.27572 202.5 0 0 4 0.00211904 -0.000422366 -0.0129762 -54.2166 -34.5268 -31.1593 
8599 538 3 1.008 0.03 22.7702 2.13014 5.66671 -26.4122 51.3125 5.66671 -1 1 0 0.0126595 -0.015844 -0.0116901 -3.56887 16.4612 -8.51916 
1641 103 3 1.008 0.03 20.6895 7.33687 2.72295 -126.858 7.33687 51.9053 -3 0 1 0.0197939 -0.0129045 -0.00118659 17.9239 24.7339 -25.1827 
4021 252 2 12.01 0.11 22.1091 2.56476 1.94952 22.1091 51.7471 51.1319 0 1 1 -0.00174164 0.00270136 -0.0073674 1.06708 33.485 -25.3217 
4359 273 3 1.008 0.03 17.6581 4.81372 3.49895 17.6581 4.81372 200.228 0 0 4 0.0140698 0.00435397 0.0308105 7.90897 8.85125 0.542402 
4354 273 1 16 -0.4 16.8903 2.54893 4.8046 16.8903 2.54893 201.534 0 0 4 0.00260122 0.00172398 0.000890324 25.4955 35.3214 29.1902 
1648 103 3 1.008 0.03 22.8685 6.54976 3.3665 -124.679 6.54976 52.5488 -3 0 1 0.021862 -0.00469735 -0.000813347 -2.97578 6.94629 19.2569 
1634 103 1 16 -0.4 22.485 8.01973 1.92441 -125.062 8.01973 51.1068 -3 0 1 0.00208085 -0.00300847 0.00126405 43.2673 -11.1522 7.82822 
1636 103 2 12.01 0.14 21.1409 7.81975 1.79513 -126.406 7.81975 50.9775 -3 0 1 -0.0020192 0.000729698 -0.000644454 -58.871 -27.6037 8.76628 
8595 538 2 12.01 0.14 22.7874 1.09193 5.91074 -26.395 50.2743 5.91074 -1 1 0 0.000230259 -0.00289128 -0.00686502 -25.8868 -30.388 -21.4415 
8800 550 3 1.008 0.03 19.197 5.86552 5.76086 -79.1677 202.595 54.9432 -2 4 1 0.00462034 0.00185339 0.0230281 4.75185 9.21991 9.54507 
8790 550 2 12.01 0.11 19.4892 6.66281 5.07566 -78.8755 203.392 54.258 -2 4 1 0.00348117 0.00512545 -0.000281254 -14.4641 0.0176623 -18.5316 
8799 550 3 1.008 0.03 20.035 7.50278 5.57509 -78.3297 204.232 54.7574 -2 4 1 -0.00623633 -0.00819904 0.0252829 -6.18301 -18.6844 -10.6606 
8798 550 3 1.008 0.03 20.1334 6.11146 4.34335 -78.2313 202.841 53.5257 -2 4 1 0.0106826 -0.00826938 0.0115491 -9.36187 16.3706 13.5419 
8786 550 1 16 -0.4 18.2705 7.15004 4.44054 -80.0942 203.879 53.6229 -2 4 1 -0.00139491 0.00238036 0.00166606 20.3838 -7.10968 4.577 
7973 499 2 12.01 0.11 17.096 7.34549 0.939417 -81.2687 -91.0192 50.1218 -2 -2 1 -0.00314368 -0.00455909 0.00216479 -19.6666 24.1917 -19.9254 
299 19 3 1.008 0.03 22.9117 7.35621 6.93032 22.9117 105.721 -42.252 0 2 -1 -0.00857202 -0.000451163 -0.024142 -2.36911 13.369 -8.86056 
4017 252 1 16 -0.4 23.0665 2.45381 2.94971 23.0665 51.6362 52.1321 0 1 1 0.00343315 0.000489997 -1.78968e-05 17.486 -6.95332 23.7507 
7981 499 3 1.008 0.03 17.6371 6.69833 1.53551 -80.7276 -91.6664 50.7179 -2 -2 1 -0.000703451 -0.0056837 0.00273171 17.0113 -19.7916 24.5248 
1646 103 3 1.008 0.03 22.8671 5.92792 1.84713 -124.68 5.92792 51.0295 -3 0 1 0.0189746 0.00463364 -0.0152884 8.9564 15.2886 -3.67019 
7980 499 3 1.008 0.03 17.1788 8.33666 1.37559 -81.1859 -90.028 50.5579 -2 -2 1 0.0373465 -0.00762547 0.00262421 5.60943 4.07472 -1.22843 
4364 273 3 1.008 0.03 19.0441 4.83719 1.75387 19.0441 4.83719 198.483 0 0 4 0.0121776 -0.0059128 0.00892997 -15.9206 -15.6812 -11.2572 
4024 252 3 1.008 0.03 24.2862 3.93128 2.1353 24.2862 53.1136 51.3177 0 1 1 0.0235042 -0.0335833 0.025989 0.559758 -9.00061 6.20087 
4019 252 2 12.01 0.14 24.3551 2.90058 2.52925 24.3551 52.0829 51.7116 0 1 1 -0.00304497 -0.00700312 -0.00364996 -15.4885 26.9378 -15.9272 
289 19 1 16 -0.4 24.3898 8.25446 5.72174 24.3898 106.619 -43.4606 0 2 -1 0.00261496 0.00210141 0.00258874 -4.83876 21.5665 -23.8304 
4023 252 3 1.008 0.03 24.6904 2.29518 1.70926 24.6904 51.4775 50.8916 0 1 1 -0.0161736 0.00926591 0.0206419 0.321781 -7.24987 -11.5497 
4357 273 2 12.01 0.11 18.3346 4.15987 1.19631 18.3346 4.15987 197.926 0 0 4 0.00174421 -0.00183153 0.00545602 23.8386 -2.97432 9.93634 
293 19 2 12.01 0.11 23.9637 7.64932 6.88107 23.9637 106.014 -42.3013 0 2 -1 0.000884847 -0.00469621 0.00774639 -19.2476 -18.8723 33.3878 
8593 538 1 16 -0.4 22.3984 0.859163 7.28814 -26.7839 50.0415 7.28814 -1 1 0 -0.00756778 -0.00244886 0.00607678 7.47063 -3.6508 -3.22031 
300 19 3 1.008 0.03 24.3686 6.64611 7.01049 24.3686 105.011 -42.1719 0 2 -1 -0.015908 -0.000869858 0.00224267 16.7909 6.66889 3.06986 
8604 538 3 1.008 0.03 20.7865 1.9575 7.00166 -28.3959 51.1398 7.00166 -1 1 0 -0.00430009 -0.016525 0.00453422 4.96093 23.9064 2.70445 
4027 252 3 1.008 0.03 21.8619 3.64659 1.78524 21.8619 52.8289 50.9676 0 1 1 0.00711362 -0.0191441 0.0209963 4.14395 -20.9454 3.19969 
4363 273 3 1.008 0.03 17.7176 4.7609 0.536065 17.7176 4.7609 197.265 0 0 4 0.0175922 0.0106771 0.0101987 1.19178 -2.39986 -7.01186 
4365 273 3 1.008 0.03 18.9665 3.45921 0.630351 18.9665 3.45921 197.36 0 0 4 -0.00814203 -0.00774237 0.0325712 -6.15582 6.86937 -2.27579 
3963 248 3 1.008 0.03 1.58524 11.8344 6.93505 50.7676 11.8344 -42.2473 1 0 -1 0.0204203 -0.0476563 0.0214661 2.73221 7.25616 5.54813 
1424 89 3 1.008 0.03 2.8503 9.41307 4.50399 -46.332 58.5954 53.6863 -1 1 1 -0.00111008 0.00394571 0.00843418 -9.7492 -29.9134 -1.12621 
1422 89 3 1.008 0.03 1.3348 8.77133 3.93648 -47.8476 57.9537 53.1188 -1 1 1 -0.015469 -0.00293915 0.00130426 4.92346 -13.7964 10.7331 
5928 371 3 1.008 0.03 2.4844 12.2307 2.49512 2.4844 110.595 100.86 0 2 2 -0.0215542 0.00238704 -0.0125088 -18.3187 -17.94 26.8096 
5924 371 2 12.01 0.14 3.7043 10.7144 1.22022 3.7043 109.079 99.5849 0 2 2 0.00783507 -0.00466367 -0.000243924 2.32487 29.7558 -2.65302 
5927 371 3 1.008 0.03 4.0936 12.6716 2.17948 4.0936 111.036 100.544 0 2 2 -0.00763195 0.0125417 0.00433201 3.56197 -1.85955 3.84649 
6685 418 3 1.008 0.03 5.95479 12.1201 5.76869 104.319 -86.2446 54.951 2 -2 1 -0.00543958 -0.00892065 -0.0069675 -16.2517 3.72364 15.6707 
6677 418 2 12.01 0.11 6.80562 11.7445 5.26282 105.17 -86.6202 54.4452 2 -2 1 0.00245188 0.00168208 -0.00150019 2.45468 -14.9241 -48.5072 
5926 371 2 12.01 0.11 5.98859 11.0271 0.424263 5.98859 109.392 98.789 0 2 2 0.0103667 -0.00477487 0.000579355 -14.2134 -1.22818 6.57427 
1306 82 3 1.008 0.03 3.96972 15.8443 1.39633 102.334 -33.338 99.761 2 -1 2 0.0235541 0.024289 0.00231267 23.5776 -27.9432 -20.054 
6684 418 3 1.008 0.03 6.93512 10.6704 5.36079 105.3 -87.6943 54.5431 2 -2 1 0.00579778 0.0119916 0.00603442 -5.52947 -4.01311 7.65174 
5921 371 1 16 -0.4 2.76542 13.0211 0.729563 2.76542 111.386 99.0943 0 2 2 0.00217291 0.00205513 0.00450346 -2.83543 -26.005 -14.4422 
5923 371 2 12.01 0.14 3.23573 12.1477 1.77092 3.23573 110.512 100.136 0 2 2 0.00516152 0.00188806 -0.00179548 24.5607 8.3404 -57.2324 
6683 418 3 1.008 0.03 6.56672 11.8231 4.18973 104.931 -86.5415 53.3721 2 -2 1 -0.0222706 0.00670795 -2.22598e-07 3.98293 7.5003 8.22392 
5929 371 3 1.008 0.03 4.19103 10.2893 2.08242 4.19103 108.654 100.447 0 2 2 0.00218155 -0.00574934 0.0168432 0.793633 -17.3576 2.50046 
3953 248 1 16 -0.4 1.38374 13.936 7.20175 50.5661 13.936 -41.9806 1 0 -1 -0.00128299 0.00468747 0.000487237 10.4418 -36.0574 0.478482 
6673 418 1 16 -0.4 7.99216 12.4287 5.56373 106.357 -85.936 54.7461 2 -2 1 0.000900411 -0.000890452 -0.00147397 -3.02245 8.72653 -4.02976 
5934 371 3 1.008 0.03 6.32837 10.3058 1.20044 6.32837 108.67 99.5651 0 2 2 -0.00538886 -0.0326868 -0.016659 0.774723 14.3943 -11.0777 
5930 371 3 1.008 0.03 2.90936 10.0639 0.852362 2.90936 108.429 99.2171 0 2 2 -0.00256716 -0.0244989 0.011765 -6.35582 2.47155 11.8611 
1300 82 2 12.01 0.14 3.83156 16.6234 2.06559 102.196 -32.559 100.43 2 -1 2 -0.00046403 -0.00637651 -0.00214768 -26.2765 21.1005 -20.1972 
1303 82 3 1.008 0.03 2.00027 16.4772 0.845677 100.365 -32.7052 99.2104 2 -1 2 -0.0265759 0.000816546 0.0212379 -14.9115 -8.2706 0.157768 
383 24 3 1.008 0.03 6.73297 16.5933 4.16876 154.28 -32.589 4.16876 3 -1 0 -0.00641872 0.00433365 -0.00139565 6.52363 -10.8793 11.192 
3957 248 2 12.01 0.11 2.1741 12.7594 6.86271 51.3564 12.7594 -42.3196 1 0 -1 0.00376852 0.000866662 -0.00450502 -30.8406 25.8019 -20.1354 
3959 248 3 1.008 0.03 2.5633 15.3694 6.28284 51.7457 15.3694 -42.8995 1 0 -1 -0.0178901 0.0115932 0.018073 4.13524 -4.16732 9.17568 
4911 307 3 1.008 0.03 8.23897 12.3425 1.96801 8.23897 12.3425 1.96801 0 0 0 0.0232725 -0.00187618 -0.00550706 6.04399 -3.03014 -4.15662 
4912 307 3 1.008 0.03 8.5942 13.3518 3.30712 8.5942 13.3518 3.30712 0 0 0 0.0137069 -0.0142623 -0.00678883 2.50821 1.82149 7.06861 
384 24 3 1.008 0.03 7.32584 15.0078 3.53791 154.873 -34.1745 3.53791 3 -1 0 -0.00923652 -0.0058221 -0.0102182 10.5589 31.4604 40.6371 
382 24 3 1.008 0.03 7.77492 15.6431 5.27406 155.322 -33.5392 5.27406 3 -1 0 -0.00386778 -0.00348943 -0.00931091 -5.5155 -16.6186 21.9167 
374 24 2 12.01 0.11 7.57627 15.8799 4.26481 155.123 -33.3024 4.26481 3 -1 0 0.000614564 -0.00433378 0.000724991 -19.1261 -3.38046 -61.3906 
378 24 3 1.008 0.03 8.50269 16.1464 1.82092 156.05 -33.036 1.82092 3 -1 0 -0.0300117 -0.0156859 -0.0116069 8.8723 -1.08131 6.3989 
5933 371 3 1.008 0.03 0.805823 12.9701 0.946483 0.805823 111.335 99.3112 0 2 2 -0.0132299 -0.00814701 -0.0186352 0.456739 -12.9874 -26.9293 
1305 82 3 1.008 0.03 3.62037 16.0888 2.98819 101.985 -33.0935 101.353 2 -1 2 0.00490599 0.00904141 -0.00721006 -1.61752 3.60507 5.32102 
3955 248 2 12.01 0.14 2.11536 15.1381 7.26236 51.2977 15.1381 -41.92 1 0 -1 0.00758443 0.00199686 0.000318369 -23.7957 18.5938 -33.3505 
3964 248 3 1.008 0.03 2.44616 12.8273 5.78177 51.6285 12.8273 -43.4006 1 0 -1 -0.0141855 0.00546348 -0.00453443 6.6526 0.112311 20.2253 
5936 371 3 1.008 0.03 6.00726 12.052 0.790403 6.00726 110.417 99.1551 0 2 2 -0.0040104 -0.0126162 0.0104141 2.60962 -1.54324 7.60982 
3960 248 3 1.008 0.03 1.25878 15.8307 7.26865 50.4411 15.8307 -41.9137 1 0 -1 0.00176181 -0.0039168 -0.0237924 14.361 0.726096 13.1903 
6675 418 2 12.01 0.14 8.61843 11.8853 6.69274 106.983 -86.4794 55.8751 2 -2 1 0.00084986 -3.21191e-05 -0.00254952 -23.1552 45.5035 11.1083 
4904 307 3 1.008 0.03 10.7466 8.89241 3.58374 10.7466 8.89241 3.58374 0 0 0 -0.00902946 -0.0207736 0.0127459 3.21681 -8.68973 -4.16056 
2989 187 3 1.008 0.03 12.9043 11.8415 0.765471 62.0867 11.8415 99.1302 1 0 2 0.0189894 0.00527398 -0.00247648 -5.45079 -9.44768 -3.69953 
2602 163 3 1.008 0.03 14.5969 14.596 5.34612 14.5969 -83.7687 103.711 0 -2 2 -0.0188124 0.0244598 0.0166942 13.7518 -16.3538 7.89032 
4907 307 3 1.008 0.03 11.2047 12.4342 5.31031 11.2047 12.4342 5.31031 0 0 0 0.00755357 0.0233366 0.017678 -3.2116 -10.557 -7.05987 
8795 550 3 1.008 0.03 15.3364 11.2274 3.89954 -83.0283 207.957 53.0819 -2 4 1 0.00290415 -0.0139384 -0.0066187 -17.8534 -21.6778 -13.5706 
8789 550 2 12.01 0.11 15.0305 10.1441 3.9525 -83.3342 206.873 53.1348 -2 4 1 -0.000529607 0.00337827 0.00559875 6.43625 43.3793 9.92107 
8797 550 3 1.008 0.03 14.4019 10.0787 4.83176 -83.9628 206.808 54.0141 -2 4 1 0.00840018 -0.00603339 0.0524883 -12.2602 3.3112 -1.50663 
4897 307 1 16 -0.4 11.259 10.2835 5.02897 11.259 10.2835 5.02897 0 0 0 0.00421114 -0.00605276 -0.00118895 7.20162 -4.39923 27.0821 
4903 307 3 1.008 0.03 11.7455 10.3327 3.03516 11.7455 10.3327 3.03516 0 0 0 0.00370038 -0.0161894 0.000957229 14.8318 -20.0658 -2.69547 
4905 307 3 1.008 0.03 9.34415 10.3245 2.31597 9.34415 10.3245 2.31597 0 0 0 -0.0236258 -0.00942041 0.00175188 5.40787 3.93195 12.4624 
4899 307 2 12.01 0.14 10.9674 9.94363 3.68172 10.9674 9.94363 3.68172 0 0 0 0.00315326 0.00120498 0.00266594 6.96648 50.1122 -0.342021 
4910 307 3 1.008 0.03 9.41111 13.6126 1.82971 9.41111 13.6126 1.82971 0 0 0 -0.00426771 -0.0136533 0.0046027 9.62629 28.6772 -21.5598 
4902 307 2 12.01 0.11 9.05578 12.8747 2.46047 9.05578 12.8747 2.46047 0 0 0 -0.0113079 -0.00295003 -0.000752756 -16.2859 -26.7691 20.7992 
4900 307 2 12.01 0.14 9.81355 10.7969 3.20644 9.81355 10.7969 3.20644 0 0 0 0.0014531 0.004504 0.00462325 -57.778 -32.5152 17.9745 
4898 307 1 16 -0.4 10.1506 12.0794 2.87679 10.1506 12.0794 2.87679 0 0 0 -0.00249464 -0.000284025 -0.00489142 19.6389 27.1518 -15.8606 
4906 307 3 1.008 0.03 9.05316 10.8651 4.02791 9.05316 10.8651 4.02791 0 0 0 -0.00357976 0.00589976 0.000549503 13.7302 -8.96298 -20.6935 
2601 163 3 1.008 0.03 14.3113 14.5518 3.56178 14.3113 -83.8129 101.926 0 -2 2 -0.00255609 -0.0346428 -0.00290799 0.039697 6.32861 24.4431 
2607 163 3 1.008 0.03 12.2935 13.84 3.19456 12.2935 -84.5246 101.559 0 -2 2 0.0112956 0.0301785 -0.0129074 -7.05808 -7.69994 0.297324 
7696 481 3 1.008 0.03 13.9721 14.7498 0.975723 13.9721 162.297 0.975723 0 3 0 -0.0207482 -0.00484015 -0.00339613 -7.17084 -10.0807 21.4864 
2598 163 2 12.01 0.11 11.8925 14.6578 3.78703 11.8925 -83.7069 102.152 0 -2 2 -0.00475288 0.00672559 0.0017257 13.3658 31.4754 15.5508 
2608 163 3 1.008 0.03 10.8761 14.4943 4.1259 10.8761 -83.8704 102.491 0 -2 2 -0.0210525 -0.000695275 -0.0155588 -3.77833 -7.09306 -1.38942 
8785 550 1 16 -0.4 16.2316 9.56206 4.28437 -82.1331 206.291 53.4667 -2 4 1 0.000952466 0.00428422 0.00642891 22.7039 -13.6158 4.73737 
2594 163 1 16 -0.4 12.7241 14.9501 4.94171 12.7241 -83.4146 103.306 0 -2 2 0.00334384 -0.000520904 0.00192402 -4.91289 -6.4167 -27.5294 
8796 550 3 1.008 0.03 14.5462 9.71436 3.0718 -83.8185 206.444 52.2542 -2 4 1 0.0363194 -0.0325603 0.00732142 1.14385 5.57102 -1.75816 
7684 481 2 12.01 0.14 16.6415 15.7296 0.524978 16.6415 163.277 0.524978 0 3 0 -0.00352942 -0.00400131 -0.000539136 -10.7712 -54.3723 39.3555 
7690 481 3 1.008 0.03 16.4741 15.4957 1.61338 16.4741 163.043 1.61338 0 3 0 0.0246964 0.0208694 -0.0018031 8.29636 5.36977 -21.8912 
4909 307 3 1.008 0.03 12.7577 11.7681 4.74798 12.7577 11.7681 4.74798 0 0 0 0.0449188 0.000221862 0.00664346 -12.5713 -3.73618 -0.177968 
4901 307 2 12.01 0.11 11.863 11.5574 5.36149 11.863 11.5574 5.36149 0 0 0 0.000971491 0.00504488 0.000901656 11.8201 11.6041 -16.735 
2606 163 3 1.008 0.03 11.8472 15.5408 3.12904 11.8472 -82.8239 101.494 0 -2 2 -0.0257628 -0.00325468 -0.00472755 1.65708 -6.62737 4.53647 
2599 163 3 1.008 0.03 15.6414 16.5335 4.27946 15.6414 -81.8312 102.644 0 -2 2 0.011972 0.00376258 0.00117718 14.2502 6.04425 6.81147 
2596 163 2 12.01 0.14 14.0914 15.0608 4.54265 14.0914 -83.3039 102.907 0 -2 2 -0.00128361 -0.00721885 0.00318007 -8.80672 13.7187 -30.3329 
370 24 1 16 -0.4 8.72264 16.5745 3.83624 156.27 -32.6079 3.83624 3 -1 0 5.30549e-05 0.00529237 -0.000978269 -7.55933 1.67751 -9.10602 
2595 163 2 12.01 0.14 14.5904 16.5283 4.4919 14.5904 -81.8364 102.857 0 -2 2 0.001778 0.000675656 0.00195779 -42.4895 -6.50598 -42.311 
6679 418 3 1.008 0.03 8.87389 10.9052 6.44425 107.239 -87.4595 55.6266 2 -2 1 0.00782259 -0.0148926 -0.0227537 29.7206 -27.7132 1.02081 
7975 499 3 1.008 0.03 15.0292 8.81424 0.772768 -83.3355 -89.5505 49.9551 -2 -2 1 0.0172561 0.0191381 -0.0101462 2.21139 -6.27134 -15.6818 
801 51 1 16 -0.4 16.613 15.2069 6.41344 164.16 15.2069 -42.7689 3 0 -1 0.00191636 -0.00276213 0.00114217 8.33607 22.3136 23.3707 
6680 418 3 1.008 0.03 9.37862 12.6591 6.94057 107.743 -85.7056 56.1229 2 -2 1 -0.0123728 -0.00619035 -0.0090421 7.64416 -26.1309 -8.89285 
4908 307 3 1.008 0.03 12.267 11.6337 6.36713 12.267 11.6337 6.36713 0 0 0 -0.0013666 0.00225831 0.00405516 -4.54424 -12.0137 4.58534 
296 19 3 1.008 0.03 23.2485 10.0072 6.13867 23.2485 108.372 -43.0437 0 2 -1 0.0291727 0.0105566 0.0251153 -3.34892 8.08607 13.4545 
291 19 2 12.01 0.14 23.4999 9.3282 5.35329 23.4999 107.693 -43.8291 0 2 -1 -0.0109305 0.004343 0.00590939 13.1403 -39.3949 5.56722 
1640 103 3 1.008 0.03 19.5138 9.28958 1.91877 -128.033 9.28958 51.1011 -3 0 1 -0.0291231 -0.00233637 0.00361212 -4.05299 0.457144 2.9924 
295 19 3 1.008 0.03 22.6204 8.85114 4.9612 22.6204 107.216 -44.2212 0 2 -1 -0.0231419 0.0244978 -0.0123633 -15.4315 -1.72146 4.67359 
1635 103 2 12.01 0.14 20.5375 9.2487 1.56528 -127.01 9.2487 50.7476 -3 0 1 -0.00393508 0.00271847 0.00238135 3.68809 -29.347 -3.57877 
297 19 3 1.008 0.03 24.2448 9.37182 3.37035 24.2448 107.737 -45.812 0 2 -1 0.00312937 0.00605029 0.0147799 13.9763 -10.5631 -7.36597 
809 51 3 1.008 0.03 17.8669 13.1999 6.75598 165.414 13.1999 -42.4264 3 0 -1 -0.00201743 -0.0184896 0.00675214 12.9158 7.6601 -12.3565 
292 19 2 12.01 0.14 24.0751 10.0241 4.20021 24.0751 108.389 -44.9821 0 2 -1 -0.00538352 -0.00164766 0.00171851 -0.709721 35.0964 -28.8998 