ITEM: TIMESTEP
4900000
ITEM: NUMBER OF ATOMS
10479
ITEM: BOX BOUNDS pp pp pp
4.0882558190751794e-01 4.9591174418091420e+01
4.0882558190751794e-01 4.9591174418091420e+01
4.0882558190751794e-01 4.9591174418091420e+01
ITEM: ATOMS id mol type mass q x y z xu yu zu ix iy iz vx vy vz fx fy fz 
7394 463 1 16 -0.4 5.84167 2.71311 2.9856 104.206 -46.4692 52.1679 2 -1 1 0.0091948 -0.000752353 4.75814e-05 36.4387 10.7035 -33.3165 
7396 463 2 12.01 0.14 5.04455 2.25443 3.99238 103.409 -46.9279 53.1747 2 -1 1 -0.00239953 -0.00533971 -9.94056e-05 -32.1389 20.0897 32.5765 
7395 463 2 12.01 0.14 3.53492 2.17859 3.53167 101.9 -47.0038 52.714 2 -1 1 0.00236956 -0.00510115 0.00170913 29.3322 -46.6592 38.928 
2054 129 2 12.01 0.11 2.77843 5.53084 4.63777 51.9608 54.7132 53.8201 1 1 1 -0.00171561 -0.00306228 0.00375303 -12.6062 -35.1997 -45.2129 
7399 463 3 1.008 0.03 3.41597 1.20436 3.02896 101.781 -47.978 52.2113 2 -1 1 0.0347774 0.0171139 0.0140645 -1.81986 15.7166 -13.1611 
2050 129 1 16 -0.4 1.5551 6.06697 5.03939 50.7374 55.2493 54.2217 1 1 1 0.00795379 -0.00365723 0.00196998 22.9296 42.7455 22.1696 
2062 129 3 1.008 0.03 2.84978 5.27209 3.52868 52.0321 54.4544 52.711 1 1 1 -0.00777343 -0.00613166 0.00746284 -6.87852 6.81861 33.385 
2064 129 3 1.008 0.03 2.92966 4.6638 5.24096 52.112 53.8462 54.4233 1 1 1 0.00289863 0.00848372 -0.0170799 4.19463 -16.8333 2.4847 
7398 463 2 12.01 0.11 7.23843 2.87968 3.34662 105.603 -46.3027 52.529 2 -1 1 -0.0115432 0.000455164 -0.00392619 -39.8085 32.8611 -33.5099 
6680 418 3 1.008 0.03 6.62469 6.13866 1.50783 104.989 -92.226 50.6902 2 -2 1 -0.00514332 0.00536955 0.029363 -12.8717 -1.54803 -0.857489 
7406 463 3 1.008 0.03 7.81393 3.06342 2.4088 106.179 -46.1189 51.5912 2 -1 1 0.0042792 -0.00807157 0.042452 -10.8309 4.51969 18.5209 
7401 463 3 1.008 0.03 5.15757 3.05242 4.76802 103.522 -46.1299 53.9504 2 -1 1 0.00102791 0.0137561 0.030955 -6.26034 -19.6253 -6.01806 
7400 463 3 1.008 0.03 3.23779 2.9865 2.9556 101.602 -46.1958 52.1379 2 -1 1 0.015993 0.00671053 -0.00682101 -4.08409 25.0573 -28.6364 
7393 463 1 16 -0.4 2.63043 2.19264 4.62931 100.995 -46.9897 53.8117 2 -1 1 -0.00349985 -0.00130655 -0.00836597 11.4741 11.4104 -10.3447 
2063 129 3 1.008 0.03 3.60424 6.10999 4.86255 52.7866 55.2923 54.0449 1 1 1 -0.00506659 -0.0136052 -0.0215967 17.0872 29.0579 9.99001 
7407 463 3 1.008 0.03 7.28708 3.77807 4.02287 105.652 -45.4043 53.2052 2 -1 1 0.0019485 -0.0177079 -0.00968352 10.5967 -28.5096 -7.36649 
7397 463 2 12.01 0.11 2.52147 0.944618 5.23869 100.886 -48.2377 54.421 2 -1 1 0.00555506 -0.00143201 -0.00606398 0.233682 -43.6567 46.1339 
7408 463 3 1.008 0.03 7.56641 1.94035 3.69488 105.931 -47.242 52.8772 2 -1 1 -0.00598473 0.00949682 0.000105519 15.0264 -14.3657 21.2798 
3179 199 3 1.008 0.03 2.20264 7.0649 1.15768 100.567 -91.2998 50.34 2 -2 1 -0.000290366 0.0404851 0.013427 -8.26812 -13.0892 -10.9417 
2057 129 3 1.008 0.03 0.571866 4.29519 5.24796 49.7542 53.4775 54.4303 1 1 1 0.015152 -0.00449127 -0.0264637 1.28124 -12.9554 9.9772 
7403 463 3 1.008 0.03 1.59516 1.01005 5.87132 99.9599 -48.1723 55.0537 2 -1 1 0.0223965 -0.00188825 0.0104754 17.8106 -6.84499 -13.8456 
6675 418 2 12.01 0.14 7.1128 6.93722 2.04817 105.478 -91.4275 51.2305 2 -2 1 -0.00107641 -0.0029133 -0.00448449 7.60478 16.8401 12.4448 
6677 418 2 12.01 0.11 6.08684 6.34864 4.11334 104.452 -92.0161 53.2957 2 -2 1 0.00097659 -0.00299272 0.00340037 -21.9447 -21.1765 -29.4591 
6673 418 1 16 -0.4 6.49935 7.37044 3.28496 104.864 -90.9943 52.4673 2 -2 1 -0.001734 -0.000442714 -0.00656042 8.99887 2.6316 -26.861 
6683 418 3 1.008 0.03 5.41299 5.60016 3.5956 103.778 -92.7645 52.7779 2 -2 1 -0.0186258 0.00578621 -0.00559245 16.3573 19.6615 12.9706 
6684 418 3 1.008 0.03 6.94493 5.86989 4.46726 105.31 -92.4948 53.6496 2 -2 1 0.0173755 -0.0125593 0.0075105 22.4498 -15.6505 13.5568 
6676 418 2 12.01 0.14 7.2422 8.22375 1.217 105.607 -90.1409 50.3994 2 -2 1 0.0141641 -9.59163e-05 -0.00415005 12.2763 20.4215 26.4442 
6679 418 3 1.008 0.03 8.10201 6.54197 2.18062 106.467 -91.8227 51.363 2 -2 1 0.0174118 -0.0259846 0.00700457 10.7253 -1.5285 12.031 
7405 463 3 1.008 0.03 3.35986 0.66149 5.96677 101.725 -48.5209 55.1491 2 -1 1 -0.0117103 -0.0324848 0.00525827 -23.1762 18.5265 -26.1814 
3173 199 2 12.01 0.11 1.32876 6.55667 0.691471 99.6935 -91.808 49.8738 2 -2 1 -0.00323366 0.00207156 -0.00259813 -5.25673 10.3827 -1.97357 
3181 199 3 1.008 0.03 0.615413 6.34536 1.50493 98.9801 -92.0193 50.6873 2 -2 1 -0.0437247 -0.01054 -0.0105584 5.10929 5.01115 -6.90485 
1122 71 1 16 -0.4 7.22538 2.58836 6.97462 -91.1393 51.7707 6.97462 -2 1 0 -0.003901 -0.00111506 -0.000707371 -5.62031 -18.7866 3.79281 
1124 71 2 12.01 0.14 6.80289 1.22467 7.15373 -91.5618 50.407 7.15373 -2 1 0 -0.0114217 -0.00415761 -0.00482406 20.5731 2.2787 30.3988 
7402 463 3 1.008 0.03 5.41605 1.29755 4.36197 103.781 -47.8848 53.5443 2 -1 1 -0.000227315 -0.013031 -0.00145224 -2.60713 0.395487 3.27104 
6685 418 3 1.008 0.03 5.60357 6.82676 4.92572 103.968 -91.5379 54.1081 2 -2 1 -0.00524352 0.000848941 0.0176805 -9.84747 3.44109 18.1086 
8423 527 3 1.008 0.03 3.04039 8.58762 3.94467 -46.142 57.77 53.127 -1 1 1 -0.0272484 0.0106259 -0.000472137 -4.57905 -26.6635 -0.759092 
6674 418 1 16 -0.4 6.13943 8.28057 0.408827 104.504 -90.0841 49.5912 2 -2 1 0.00165262 0.00447175 -0.00149533 -51.8538 17.6619 3.07259 
2058 129 3 1.008 0.03 0.45358 5.2079 3.7791 49.6359 54.3902 52.9614 1 1 1 0.00355802 0.0213909 0.00934233 -7.95678 -10.6207 -16.465 
620 39 3 1.008 0.03 6.48982 7.49466 7.25801 55.6722 105.859 105.623 1 2 2 -0.0271264 0.0115855 0.0137061 1.17247 4.63935 -11.9859 
6686 418 3 1.008 0.03 4.26171 7.89788 1.39545 102.626 -90.4668 50.5778 2 -2 1 -0.0143253 -0.00519871 -0.0161726 17.0728 2.10313 4.15385 
6682 418 3 1.008 0.03 8.06545 8.22515 0.531871 106.43 -90.1396 49.7142 2 -2 1 -0.011832 0.000929408 0.00118894 13.7661 -5.86035 -2.90808 
1129 71 3 1.008 0.03 5.81053 1.11437 6.80094 -92.5542 50.2967 6.80094 -2 1 0 0.00311815 0.013055 -0.0101269 -19.025 -7.74426 -9.73705 
1136 71 3 1.008 0.03 5.28264 3.40834 7.23545 -93.0821 52.5907 7.23545 -2 1 0 -0.00487862 -0.000671631 0.00881388 15.5399 -5.26103 3.88876 
2052 129 2 12.01 0.14 0.47425 5.27861 4.84257 49.6566 54.461 54.0249 1 1 1 -0.000435552 0.00691295 0.00201574 -24.188 3.09978 -25.0039 
4004 251 2 12.01 0.14 9.63562 1.2417 1.22519 58.818 99.6064 197.955 1 2 4 -0.001124 0.00157033 0.0099257 -29.8305 -40.6987 5.74319 
7437 465 3 1.008 0.03 9.59722 3.63491 6.46609 107.962 102 6.46609 2 2 0 -0.0211378 -0.0189124 0.0201443 3.11548 -16.2766 -5.41131 
4007 251 3 1.008 0.03 11.5749 1.46759 1.65891 60.7573 99.8323 198.388 1 2 4 0.0183898 -0.0195763 -0.0105427 26.5199 8.58684 2.07787 
7428 465 2 12.01 0.14 13.202 3.74625 5.79826 111.567 102.111 5.79826 2 2 0 0.00288319 0.00265861 -0.00110917 14.1876 15.6 -19.8919 
8133 509 2 12.01 0.11 10.9253 8.02191 4.37842 -38.257 57.2043 4.37842 -1 1 0 0.00952928 0.00528836 0.00168312 -21.7706 14.5894 3.76768 
9009 564 1 16 -0.4 15.9963 2.45602 1.66985 -33.186 2.45602 1.66985 -1 0 0 0.00941638 -0.00587339 -0.00651321 6.89272 11.1052 -0.593029 
9436 590 3 1.008 0.03 15.0744 7.83102 3.34562 64.2568 7.83102 101.71 1 0 2 0.00966017 0.0173299 0.0115109 3.63053 7.28497 -2.29638 
9429 590 2 12.01 0.11 15.5278 7.43878 4.25144 64.7101 7.43878 102.616 1 0 2 0.00667127 -0.00827785 -0.00389021 30.2604 32.555 -15.6926 
7432 465 3 1.008 0.03 12.6185 4.88105 4.15896 110.983 103.246 4.15896 2 2 0 -0.000441306 0.00854453 -0.0291819 -7.24871 14.9352 -6.57489 
9021 564 3 1.008 0.03 15.8361 3.29871 3.56962 -33.3463 3.29871 3.56962 -1 0 0 0.00482985 0.0146128 -0.0146214 -2.42974 5.92537 -13.2881 
9013 564 2 12.01 0.11 15.7065 3.58397 2.50189 -33.4758 3.58397 2.50189 -1 0 0 -0.0034313 -0.00052712 0.00888594 -1.37774 -2.88996 15.458 
7427 465 2 12.01 0.14 12.1381 4.10575 4.72673 110.503 102.47 4.72673 2 2 0 -0.00171532 0.00253161 0.00272766 29.5553 -27.0718 -18.835 
9437 590 3 1.008 0.03 14.7573 6.94818 4.69951 63.9397 6.94818 103.064 1 0 2 0.012559 0.00424958 -0.00964467 -34.4486 -20.1312 31.2637 
9020 564 3 1.008 0.03 14.6731 3.94311 2.38094 -34.5092 3.94311 2.38094 -1 0 0 0.0066959 0.0134375 0.0219126 6.53669 -8.75803 2.04865 
9425 590 1 16 -0.4 16.5076 6.50996 3.90543 65.69 6.50996 102.27 1 0 2 -6.89443e-05 -0.00349257 -0.00224762 16.1769 3.77417 -9.49933 
9435 590 3 1.008 0.03 15.9709 8.25792 4.87101 65.1532 8.25792 103.236 1 0 2 -0.00811897 -0.00631723 -0.0375789 -15.5955 -12.0219 -5.02239 
7431 465 3 1.008 0.03 12.0248 3.27693 4.00467 110.389 101.642 4.00467 2 2 0 -0.0122066 -0.00911699 0.0374157 3.58672 8.818 4.24919 
8141 509 3 1.008 0.03 10.7109 7.31292 5.14372 -38.4714 56.4953 5.14372 -1 1 0 -0.00162049 -0.0100646 -0.0104245 1.94077 -12.0887 13.2779 
8140 509 3 1.008 0.03 11.6394 7.61368 3.69355 -37.543 56.796 3.69355 -1 1 0 -0.00502153 -0.0277865 -0.0108765 4.00459 -16.1381 -9.61821 
7433 465 3 1.008 0.03 14.2208 4.18065 5.54868 112.586 102.545 5.54868 2 2 0 -0.00484847 -0.0164432 0.00547442 -26.8888 -11.204 5.75598 
7426 465 1 16 -0.4 13.2818 2.37459 6.03959 111.647 100.739 6.03959 2 2 0 -0.000180401 0.005575 0.00135686 17.6728 -25.4536 -4.45714 
2794 175 3 1.008 0.03 16.7739 4.64824 5.97219 65.9562 152.195 55.1545 1 3 1 0.0016051 0.0233163 -0.0154834 -22.1128 8.38542 -6.96204 
9019 564 3 1.008 0.03 16.3399 4.45101 2.28933 -32.8425 4.45101 2.28933 -1 0 0 0.00554458 0.0153844 -0.0301763 -0.0766072 -7.55811 -1.10752 
7409 464 1 16 -0.4 11.4796 5.34117 1.04458 -86.8851 5.34117 50.2269 -2 0 1 -0.00364897 0.00480574 -0.00417273 33.9269 19.0759 -42.7224 
4012 251 3 1.008 0.03 12.7131 1.09082 3.99624 61.8954 99.4555 200.726 1 2 4 -0.0148214 -0.0223262 0.0245736 -49.0465 -45.3651 -3.09642 
7425 465 1 16 -0.4 10.8705 4.46084 5.20147 109.235 102.826 5.20147 2 2 0 -0.00262724 -0.00601833 0.00498353 -5.66276 -20.876 11.3415 
4009 251 3 1.008 0.03 8.82481 0.694274 1.75892 58.0072 99.059 198.488 1 2 4 0.00495919 0.0201402 -0.00327763 2.53819 20.2337 -12.843 
7429 465 2 12.01 0.11 10.1662 3.25975 5.59463 108.531 101.624 5.59463 2 2 0 0.00546742 0.00413745 0.000180024 -32.9568 47.6046 -15.7391 
7435 465 3 1.008 0.03 9.4353 2.98102 4.79228 107.8 101.346 4.79228 2 2 0 -0.0298747 0.022714 0.00270305 16.7959 3.58678 16.9118 
4001 251 1 16 -0.4 10.6252 0.814757 3.33101 59.8075 99.1795 200.06 1 2 4 -0.00167405 0.00193128 -0.000216698 10.7851 0.541705 32.4466 
7411 464 2 12.01 0.14 12.4392 6.32261 0.466653 -85.9255 6.32261 49.649 -2 0 1 -0.00497445 0.00377174 0.000336356 -46.3387 -24.5459 -7.33708 
4010 251 3 1.008 0.03 9.4417 2.30407 1.23798 58.6241 100.669 197.967 1 2 4 0.0118737 0.0110265 0.0288653 0.398325 -3.60273 12.6834 
4003 251 2 12.01 0.14 10.8558 0.767615 1.99265 60.0382 99.1323 198.722 1 2 4 0.00396655 0.00106088 -0.00107726 -15.1835 34.15 -38.6363 
1127 71 3 1.008 0.03 8.84573 0.498565 6.77324 -89.519 49.6809 6.77324 -2 1 0 -0.0174286 0.0226882 0.00270205 -26.6316 -0.910539 -1.58197 
7439 465 3 1.008 0.03 15.3906 2.10438 6.52291 113.755 100.469 6.52291 2 2 0 -0.0106797 -0.00525669 -0.00594464 -7.52251 -2.79845 -3.24862 
7418 464 3 1.008 0.03 14.1605 5.00359 0.62605 -84.2042 5.00359 49.8084 -2 0 1 -0.00878869 0.00689227 0.0158032 -8.52663 -1.99162 -7.02362 
8139 509 3 1.008 0.03 9.93673 8.16866 3.8809 -39.2456 57.351 3.8809 -1 1 0 -0.0156944 -0.0109216 -0.0295241 19.0183 4.4794 2.86365 
7438 465 3 1.008 0.03 14.1661 1.04314 7.35268 112.531 99.4078 7.35268 2 2 0 0.0510796 0.00271302 0.00256131 5.12114 -10.9472 -2.18852 
7430 465 2 12.01 0.11 14.367 2.00755 6.91401 112.732 100.372 6.91401 2 2 0 0.000469553 0.000188122 0.000281153 -18.1559 0.448194 -25.0436 
7434 465 3 1.008 0.03 12.8542 4.14214 6.7081 111.219 102.507 6.7081 2 2 0 -0.00782555 0.0149486 -0.0174425 -1.8751 18.5986 22.8211 
7436 465 3 1.008 0.03 10.7626 2.40597 5.82381 109.127 100.771 5.82381 2 2 0 0.0200776 -0.019608 -0.0141085 8.44925 -10.8561 10.0029 
7416 464 3 1.008 0.03 12.6589 7.09483 1.16297 -85.7058 7.09483 50.3453 -2 0 1 -0.0169651 0.0128936 0.00665076 3.89866 10.8581 15.3879 
7103 444 3 1.008 0.03 13.5192 7.41652 7.00617 62.7016 56.5989 -42.1762 1 1 -1 0.00418897 -0.010426 0.0106064 13.125 -27.4383 -23.1505 
9024 564 3 1.008 0.03 15.4172 0.659195 0.409179 -33.7651 0.659195 0.409179 -1 0 0 0.0214712 0.0119056 -0.00201685 -8.81934 19.0931 1.48006 
7421 464 3 1.008 0.03 10.2261 3.89918 0.441072 -88.1386 3.89918 49.6234 -2 0 1 -0.0180409 -0.0242164 0.0219399 12.036 7.37358 -20.2638 
7858 492 1 16 -0.4 23.6228 0.585659 4.8248 -25.5596 49.768 4.8248 -1 1 0 0.000703616 0.00350244 -0.00606801 -13.7433 -30.9974 4.26175 
7866 492 3 1.008 0.03 23.3657 0.894284 2.81748 -25.8167 50.0766 2.81748 -1 1 0 -0.00321996 0.00617835 0.0101811 9.16076 8.8073 -3.35793 
9427 590 2 12.01 0.14 17.698 7.1912 3.48745 66.8804 7.1912 101.852 1 0 2 0.00458317 0.00629508 0.0103345 -19.6085 -47.4944 -54.1993 
9011 564 2 12.01 0.14 17.2686 1.84456 1.93111 -31.9137 1.84456 1.93111 -1 0 0 0.00572053 0.00603311 -0.00342868 5.65903 -43.6449 -18.1634 
7745 485 1 16 -0.4 21.9561 0.486157 0.475806 21.9561 148.033 0.475806 0 3 0 -0.00422627 -0.000229519 0.00568059 8.87447 5.49207 8.2703 
9426 590 1 16 -0.4 17.6811 6.69627 1.03839 66.8634 6.69627 99.4031 1 0 2 0.00375549 -0.00248449 -0.00445173 -0.960244 1.92425 34.357 
2795 175 3 1.008 0.03 19.0766 1.05072 4.97376 68.259 148.598 54.1561 1 3 1 -0.0232777 0.0260996 -0.0199449 -4.57235 5.33104 5.61599 
9015 564 3 1.008 0.03 17.9826 1.73075 1.0691 -31.1997 1.73075 1.0691 -1 0 0 0.00733391 -0.0180373 -0.00817517 -24.4197 15.0804 11.0949 
9016 564 3 1.008 0.03 17.8138 2.37072 2.65822 -31.3686 2.37072 2.65822 -1 0 0 0.0161152 -4.15332e-05 0.0311987 11.9847 15.6035 19.9841 
7860 492 2 12.01 0.14 23.7029 1.42908 3.71606 -25.4795 50.6114 3.71606 -1 1 0 0.0101639 0.0043666 0.000476704 -15.4656 -23.2048 -23.7813 
776 49 3 1.008 0.03 18.7855 8.13496 6.44311 67.9679 57.3173 55.6255 1 1 1 -0.0163824 0.0149576 0.00772463 16.5112 14.7983 16.6809 
2797 175 3 1.008 0.03 20.2979 1.81462 5.85077 69.4803 149.362 55.0331 1 3 1 -0.000753794 2.05407e-05 0.00191446 11.7179 14.6744 10.9209 
9593 601 5 32.06 1.02 24.1629 6.25405 6.7116 -25.0194 55.4364 6.7116 -1 1 0 0.00110246 0.000647701 0.00164733 61.8363 4.1734 31.0566 
2785 175 1 16 -0.4 18.3616 2.74212 6.01264 67.5439 150.289 55.195 1 3 1 0.00219847 0.00234276 -0.0105281 24.0387 -20.127 -13.4891 
2796 175 3 1.008 0.03 19.5436 2.55205 4.35051 68.726 150.099 53.5329 1 3 1 0.00943243 0.00484967 0.00284882 15.2495 -0.103089 0.314035 
2789 175 2 12.01 0.11 19.4134 2.04036 5.3014 68.5957 149.587 54.4838 1 3 1 -0.00220122 0.00239029 0.00624081 -49.1927 -6.2565 -12.2893 
9592 601 4 14.01 -0.66 24.2427 4.78235 7.2326 -24.9396 53.9647 7.2326 -1 1 0 -0.00682232 -0.00365306 0.00623736 -30.1672 -4.46224 0.947957 
2787 175 2 12.01 0.14 18.6918 4.10837 6.04258 67.8741 151.655 55.2249 1 3 1 0.00365408 -0.00307074 -0.00544263 -15.8337 41.7818 -31.0308 
8800 550 3 1.008 0.03 23.0756 6.25838 1.68158 -75.2891 202.988 50.8639 -2 4 1 0.0213994 0.00795498 -0.0301151 1.4187 15.7001 -2.57818 
7758 485 3 1.008 0.03 20.5276 4.37881 3.17756 20.5276 151.926 3.17756 0 3 0 -0.00696682 0.00333146 -0.0268314 0.376375 15.3401 21.2493 
7750 485 2 12.01 0.11 21.105 4.19403 2.30813 21.105 151.741 2.30813 0 3 0 -0.0021892 0.000374898 -0.00378532 24.6296 -1.12365 -52.6307 
7746 485 1 16 -0.4 20.7019 2.92079 1.9176 20.7019 150.468 1.9176 0 3 0 0.00749071 -0.00426131 -0.0114282 -12.7218 -25.2729 -23.1134 
8790 550 2 12.01 0.11 23.6911 6.0753 0.800713 -74.6736 202.805 49.9831 -2 4 1 -0.00112083 0.00122797 -0.00116807 -27.3479 -18.4845 19.9262 
7752 485 3 1.008 0.03 20.0152 0.645347 1.11558 20.0152 148.192 1.11558 0 3 0 -0.0168501 0.0085404 -0.00255285 -14.2129 -16.2292 32.0295 
9602 601 6 16 -0.53 22.1481 3.82543 5.97271 -27.0343 53.0078 5.97271 -1 1 0 0.00106404 0.000795611 -0.00114064 41.9629 -4.60187 22.1088 
9600 601 5 32.06 1.02 23.2193 3.62092 6.96393 -25.963 52.8033 6.96393 -1 1 0 0.00290021 0.00228495 0.00131857 -24.3877 6.31645 -30.6815 
9601 601 6 16 -0.53 23.9653 2.37295 6.85619 -25.2171 51.5553 6.85619 -1 1 0 0.00163453 -0.00103572 0.00135497 -38.2686 31.5432 18.6459 
9434 590 3 1.008 0.03 18.3701 5.32386 2.48932 67.5524 5.32386 100.854 1 0 2 -0.00542707 0.00471056 -0.018902 3.68051 -14.2487 0.257508 
2792 175 3 1.008 0.03 18.7034 4.58374 5.00843 67.8857 152.131 54.1908 1 3 1 -0.00220821 -0.00110542 -0.0228993 13.5065 -22.4864 24.5502 
7760 485 3 1.008 0.03 20.9122 4.91098 1.48173 20.9122 152.458 1.48173 0 3 0 -0.0158033 -0.000945174 0.0240455 -4.1001 -4.5133 16.1888 
9594 601 6 16 -0.53 22.9137 6.82016 6.36444 -26.2686 56.0025 6.36444 -1 1 0 -0.00529571 0.00320123 -0.00283888 -34.2086 2.54102 -14.4087 
7865 492 3 1.008 0.03 23.0252 2.19166 3.86626 -26.1572 51.374 3.86626 -1 1 0 0.00212557 -0.0200759 0.0320833 -24.5566 33.0208 3.7805 
10479 690 9 24.305 2 24.9223 0.904294 6.1573 -24.2601 50.0866 6.1573 -1 1 0 0.00295469 -0.000140072 -0.0064756 46.4294 -31.9656 -9.49917 
9431 590 3 1.008 0.03 17.5373 8.17096 3.08986 66.7197 8.17096 101.455 1 0 2 -0.0122211 -0.0166506 0.00824522 -4.46468 17.2964 2.12497 
9432 590 3 1.008 0.03 18.2668 7.23615 4.35727 67.4491 7.23615 102.722 1 0 2 -0.024016 -0.0167041 0.00650899 28.4514 4.31356 21.1627 
9428 590 2 12.01 0.14 18.3361 6.37084 2.27685 67.5184 6.37084 100.642 1 0 2 -0.00294831 0.00545027 -0.0023589 26.6762 59.9216 5.22684 
9433 590 3 1.008 0.03 19.3853 6.79559 2.1071 68.5677 6.79559 100.472 1 0 2 0.0126656 -0.0100244 -0.0106209 -29.1344 -20.9514 11.4468 
7759 485 3 1.008 0.03 22.2081 4.14234 2.41003 22.2081 151.689 2.41003 0 3 0 -0.00226912 -0.00524461 0.0134821 -14.1501 4.93627 11.758 
777 49 3 1.008 0.03 20.9498 8.55801 6.81044 70.1321 57.7404 55.9928 1 1 1 0.00463604 0.00332345 -0.011176 19.7164 -2.51144 -18.3092 
7748 485 2 12.01 0.14 20.7024 2.58849 0.492146 20.7024 150.136 0.492146 0 3 0 -0.000814822 -0.00142481 -0.00375414 65.1784 -26.3061 32.2363 
8799 550 3 1.008 0.03 24.2211 6.87141 0.422835 -74.1436 203.601 49.6052 -2 4 1 0.00277141 0.00176701 0.00244852 27.0252 35.9317 -0.135243 
8798 550 3 1.008 0.03 24.3273 5.2802 1.12597 -74.0374 202.01 50.3083 -2 4 1 -0.012299 -0.00923396 0.0173271 14.229 -9.10054 -2.70893 
9599 601 8 19 -0.16 24.4394 5.24549 4.25742 -24.743 54.4278 4.25742 -1 1 0 0.00466156 -0.000590563 -0.00266092 -13.2142 2.55948 11.6832 
2793 175 3 1.008 0.03 17.7352 6.01057 6.61013 66.9175 153.558 55.7925 1 3 1 -0.0204305 0.00233808 -0.00458259 -1.37882 -12.4569 3.16307 
2788 175 2 12.01 0.14 17.5616 4.91608 6.63664 66.7439 152.463 55.819 1 3 1 -0.00475032 0.00516326 -0.00536793 -7.00417 -31.5323 45.9226 
2791 175 3 1.008 0.03 19.5905 4.33137 6.57268 68.7729 151.878 55.755 1 3 1 -0.0284286 0.00117533 -0.00618924 14.9211 -0.628426 6.1081 
4215 264 3 1.008 0.03 8.05244 11.8051 2.31525 8.05244 -86.5596 -46.8671 0 -2 -1 -0.00503775 0.00629775 -0.00767179 -9.12052 -10.629 -10.0127 
6681 418 3 1.008 0.03 7.32312 9.17356 1.85138 105.688 -89.1911 51.0337 2 -2 1 -0.00144978 0.0145724 0.0428145 9.78776 -30.8331 -19.7229 
8419 527 2 12.01 0.14 2.63986 9.56273 3.8707 -46.5425 58.7451 53.053 -1 1 1 -0.00710151 0.00802024 -0.0129261 -11.33 14.5152 5.77918 
7272 455 3 1.008 0.03 4.86376 13.5355 5.25772 54.0461 13.5355 54.4401 1 0 1 -0.00649135 0.00391587 -0.00846403 -10.9885 1.37869 13.0271 
7267 455 2 12.01 0.14 4.03657 12.8841 5.6005 53.2189 12.8841 54.7828 1 0 1 0.00374356 0.000881591 0.00152965 34.1306 -2.46719 -39.7359 
4212 264 2 12.01 0.14 8.19136 11.3619 4.48723 8.19136 -87.0028 -44.6951 0 -2 -1 -0.00543038 0.00733606 0.00269368 14.8271 27.5221 -13.3384 
4217 264 3 1.008 0.03 7.18552 10.9687 4.60817 7.18552 -87.396 -44.5742 0 -2 -1 -0.0152637 -0.0176128 -0.00487801 -3.3253 0.159532 -0.788304 
7268 455 2 12.01 0.14 4.23733 12.3721 7.03157 53.4197 12.3721 56.2139 1 0 1 -0.0015194 -0.0056235 -0.00281325 -17.5231 -24.2083 7.5404 
4211 264 2 12.01 0.14 8.33828 12.2945 3.2203 8.33828 -86.0702 -45.962 0 -2 -1 0.0107669 0.00234865 -0.00382759 -14.352 41.479 27.8667 
4209 264 1 16 -0.4 7.60885 13.5854 3.34484 7.60885 -84.7793 -45.8375 0 -2 -1 -0.00144148 -0.00404328 0.00262799 20.0764 -41.3405 -20.041 
7274 455 3 1.008 0.03 4.94384 11.5817 7.26738 54.1262 11.5817 56.4497 1 0 1 -0.0268584 0.0110801 -0.0383975 5.3798 -5.77739 -21.8304 
8426 527 3 1.008 0.03 1.35175 9.20423 5.60662 -47.8306 58.3866 54.789 -1 1 1 0.0275413 0.00405577 -0.0306475 10.5826 -10.9165 17.1573 
8420 527 2 12.01 0.14 1.37037 9.77021 4.71002 -47.812 58.9526 53.8924 -1 1 1 -0.000336854 -0.00581455 0.000237946 9.43189 6.77839 -15.9727 
4214 264 2 12.01 0.11 7.63404 12.9315 6.17301 7.63404 -85.4332 -43.0093 0 -2 -1 -0.00511936 -0.000820373 0.00292662 19.5289 -18.8649 -3.29692 
4224 264 3 1.008 0.03 6.67477 12.3841 6.1834 6.67477 -85.9806 -42.999 0 -2 -1 0.00296342 -0.0126153 -0.00501387 12.2284 10.4556 4.99998 
4223 264 3 1.008 0.03 7.5562 13.7957 5.51285 7.5562 -84.569 -43.6695 0 -2 -1 -0.0126767 -0.00487062 0.00375947 -3.58274 2.22395 16.3013 
8418 527 1 16 -0.4 1.09236 11.138 4.94385 -48.09 60.3203 54.1262 -1 1 1 0.00254165 -0.000937827 -0.00213019 -25.8159 -5.88946 14.1228 
7271 455 3 1.008 0.03 4.19011 12.0795 4.82841 53.3725 12.0795 54.0108 1 0 1 0.00647395 0.0181017 -0.0120197 -10.5492 11.2508 25.1661 
8417 527 1 16 -0.4 2.36846 9.84966 2.51169 -46.8139 59.032 51.694 -1 1 1 -0.00249672 -0.00325209 -0.00366784 5.14974 -19.4443 -19.2803 
8424 527 3 1.008 0.03 3.4713 10.0937 4.2619 -45.711 59.276 53.4442 -1 1 1 -0.0129314 0.0159112 0.00290445 10.4658 16.2616 4.75825 
7276 455 3 1.008 0.03 2.39822 14.3045 7.15453 51.5806 14.3045 56.3369 1 0 1 0.005779 -0.000623497 0.0230073 1.83203 8.39322 -8.99842 
7277 455 3 1.008 0.03 3.24066 15.221 5.7819 52.423 15.221 54.9642 1 0 1 0.00104589 -0.00993516 -0.0202878 -10.2357 7.36145 16.5746 
7269 455 2 12.01 0.11 2.41144 14.5584 6.07881 51.5938 14.5584 55.2612 1 0 1 -0.00667124 -0.00232193 0.000101499 -0.251998 50.0436 25.5223 
7265 455 1 16 -0.4 2.76492 13.4863 5.35424 51.9473 13.4863 54.5366 1 0 1 0.000796402 0.00667366 0.00190084 -8.81198 -49.703 -33.5897 
2923 183 3 1.008 0.03 5.22161 12.9394 0.975931 54.404 -36.2429 99.3406 1 -1 2 -0.022504 -0.023654 -0.00417342 -3.19345 0.545759 19.691 
4222 264 3 1.008 0.03 7.89217 13.2849 7.18082 7.89217 -85.0798 -42.0015 0 -2 -1 -0.0212015 0.012691 0.00124386 -3.64747 -2.20239 -4.82498 
8428 527 3 1.008 0.03 1.21126 11.5696 2.43212 -47.9711 60.7519 51.6145 -1 1 1 -0.0183505 0.000455584 0.0297402 5.03177 -8.72884 -4.51588 
4220 264 3 1.008 0.03 8.26597 13.9618 1.35016 8.26597 -84.4029 -47.8322 0 -2 -1 0.000465819 0.00679639 -0.00623793 -8.80428 12.6862 29.6526 
8429 527 3 1.008 0.03 2.83297 11.7625 2.93886 -46.3494 60.9449 52.1212 -1 1 1 -0.0118057 0.00207319 0.0104415 -1.66099 1.85966 -30.3411 
4213 264 2 12.01 0.11 7.97818 14.4948 2.31293 7.97818 -83.8699 -46.8694 0 -2 -1 0.00591087 -0.00663125 0.00508085 -8.49642 -9.37267 -42.8818 
2349 147 3 1.008 0.03 2.41692 15.2822 1.62287 100.782 15.2822 50.8052 2 0 1 0.00865681 0.0262318 0.00131023 -11.4034 -27.4196 10.0155 
2341 147 2 12.01 0.11 2.61677 16.0963 0.99585 100.981 16.0963 50.1782 2 0 1 -0.00334475 -0.00555344 0.0015183 23.9016 27.7257 -39.7542 
7275 455 3 1.008 0.03 1.45236 15.0902 5.83462 50.6347 15.0902 55.017 1 0 1 0.0159578 0.00548078 0.0073094 17.2249 -18.1856 -2.06775 
1643 103 3 1.008 0.03 5.79217 16.2383 5.93489 -141.755 16.2383 55.1172 -3 0 1 0.00150814 0.00175916 0.00952138 -3.80634 2.70582 -2.66383 
4221 264 3 1.008 0.03 7.10302 15.1259 2.04392 7.10302 -83.2388 -47.1384 0 -2 -1 0.0157522 -0.00603612 0.0235679 13.1291 -5.09089 7.07338 
8421 527 2 12.01 0.11 2.22132 11.2044 2.18454 -46.961 60.3867 51.3669 -1 1 1 0.00373395 0.00523996 0.00242384 -13.9374 24.6561 52.41 
8427 527 3 1.008 0.03 2.35698 11.4562 1.15174 -46.8254 60.6386 50.3341 -1 1 1 -0.00240349 -0.0238494 0.0108326 12.8935 0.766511 -9.48321 
6678 418 2 12.01 0.11 4.98661 8.71033 1.20346 103.351 -89.6544 50.3858 2 -2 1 -0.00270881 -0.00717611 -0.00298466 10.3362 -27.7417 -18.4095 
8425 527 3 1.008 0.03 0.580901 9.36174 4.14673 -48.6014 58.5441 53.3291 -1 1 1 0.0245649 0.00791297 0.0185339 -21.7462 -9.14211 -12.2709 
6687 418 3 1.008 0.03 5.33419 9.14734 2.13917 103.699 -89.2174 51.3215 2 -2 1 0.0129618 -0.0178482 -0.0101312 -21.4767 8.93046 3.53582 
1637 103 2 12.01 0.11 5.70911 16.4167 7.00429 -141.838 16.4167 56.1866 -3 0 1 0.00237671 0.00383834 0.00153486 29.4679 -12.7605 -7.93734 
2176 136 3 1.008 0.03 3.50674 9.57477 6.97559 101.871 9.57477 56.1579 2 0 1 0.0146782 0.00110714 0.00238145 2.23829 6.7321 -20.5338 
2348 147 3 1.008 0.03 3.7106 16.2621 1.09529 102.075 16.2621 50.2776 2 0 1 -0.0126467 0.0117683 -0.022953 -14.2204 3.49399 -0.195723 
6688 418 3 1.008 0.03 4.36653 9.38073 0.649622 102.731 -88.984 49.832 2 -2 1 0.00630133 -0.00876345 0.0194512 -0.8817 17.6815 -5.82367 
7273 455 3 1.008 0.03 3.28532 11.9634 7.31081 52.4677 11.9634 56.4932 1 0 1 -0.0043073 0.00799382 -0.0209463 -10.4616 -4.09223 5.90131 
616 39 3 1.008 0.03 7.46442 9.70806 7.2802 56.6468 108.073 105.645 1 2 2 0.00652441 -0.0158264 -0.000327935 12.572 -7.02193 3.77662 
8134 509 2 12.01 0.11 13.5303 12.4781 6.09668 -35.652 61.6605 6.09668 -1 1 0 -0.00530257 -0.00610951 0.000928646 14.2497 34.9452 -22.6246 
8143 509 3 1.008 0.03 13.9755 13.3713 5.56594 -35.2069 62.5536 5.56594 -1 1 0 -0.00961117 -0.00666705 -0.00675025 -10.3052 -28.6075 1.22577 
8144 509 3 1.008 0.03 12.5482 12.8811 6.39772 -36.6342 62.0634 6.39772 -1 1 0 0.0135599 0.0161649 -0.00084129 7.89925 -13.5937 6.10537 
4218 264 3 1.008 0.03 8.81599 10.5057 4.26372 8.81599 -87.859 -44.9186 0 -2 -1 0.00499619 0.0464747 -0.00475624 3.62585 -5.21903 6.2843 
4210 264 1 16 -0.4 8.67361 12.0437 5.67642 8.67361 -86.321 -43.5059 0 -2 -1 0.00294249 0.0029967 0.0106615 -30.8498 1.47573 -12.0495 
4219 264 3 1.008 0.03 8.83466 15.1273 2.52834 8.83466 -83.2374 -46.654 0 -2 -1 -0.010708 0.00761648 0.00971556 -1.29602 0.778244 7.53681 
8132 509 2 12.01 0.14 12.5307 11.2602 4.23562 -36.6517 60.4426 4.23562 -1 1 0 0.00346135 0.000605573 -0.00786052 -21.5496 45.4502 59.0684 
2435 153 2 12.01 0.14 15.8122 16.4374 6.59303 114.177 65.6198 6.59303 2 1 0 -0.003394 -0.00141316 -0.00391727 17.8016 16.0682 28.6917 
7046 441 2 12.01 0.11 10.0773 15.643 7.35558 59.2596 15.643 105.72 1 0 2 -0.00175143 -0.000430217 -0.00234265 20.1944 -29.2008 -6.07373 
8136 509 3 1.008 0.03 11.5148 9.90641 3.13196 -37.6676 59.0888 3.13196 -1 1 0 -0.00109103 -0.0482878 -0.00246386 -16.7263 10.5451 -31.9178 
8129 509 1 16 -0.4 11.487 9.20317 4.94831 -37.6954 58.3855 4.94831 -1 1 0 0.000835933 0.00209608 0.00332915 15.4473 4.64249 -24.0969 
7056 441 3 1.008 0.03 9.03413 15.9326 7.28458 58.2165 15.9326 105.649 1 0 2 -0.000739007 0.02098 0.00227699 -0.954832 1.45529 -9.9026 
8131 509 2 12.01 0.14 12.2195 9.90307 3.89963 -36.9629 59.0854 3.89963 -1 1 0 -0.00172921 -0.00375376 0.00597833 24.8551 -72.6408 -2.88756 
8135 509 3 1.008 0.03 13.1407 9.37998 3.43135 -36.0416 58.5623 3.43135 -1 1 0 -0.0154699 -0.0308526 -0.0129095 -35.9878 14.5176 27.4519 
8130 509 1 16 -0.4 13.4688 11.2716 5.32926 -35.7135 60.4539 5.32926 -1 1 0 -0.00321777 0.00582878 0.00113192 -4.45839 3.47822 -7.01359 
7049 441 3 1.008 0.03 9.55007 15.0752 4.72659 58.7324 15.0752 103.091 1 0 2 0.0128132 0.0136446 -0.00211889 -13.5977 -2.57625 -2.08579 
7689 481 3 1.008 0.03 13.3424 13.9049 0.805203 13.3424 161.452 0.805203 0 3 0 -0.00540189 -0.0133064 0.0082677 28.8101 4.50446 -2.76477 
3967 248 3 1.008 0.03 16.3537 11.1417 1.52998 65.5361 11.1417 -47.6524 1 0 -1 -0.016506 -0.0238374 0.00557578 2.13268 3.55624 25.5724 
3968 248 3 1.008 0.03 15.3915 12.1684 2.70337 64.5739 12.1684 -46.479 1 0 -1 0.0130078 -0.0209338 -0.00551957 10.2693 12.4728 11.8559 
8137 509 3 1.008 0.03 12.8948 11.7619 3.40072 -36.2876 60.9442 3.40072 -1 1 0 0.00970396 -0.000453728 0.00387508 15.7562 17.6053 -25.1002 
3954 248 1 16 -0.4 14.4854 11.3118 1.23737 63.6677 11.3118 -47.945 1 0 -1 0.00471721 -0.00620383 -0.00618868 -28.0749 -8.00297 -4.47902 
3958 248 2 12.01 0.11 15.475 11.2305 2.20332 64.6574 11.2305 -46.979 1 0 -1 0.00421929 -0.000484572 0.00441508 10.0998 -1.62386 -36.323 
3966 248 3 1.008 0.03 15.3645 10.4167 2.89874 64.5469 10.4167 -46.2836 1 0 -1 -0.0197381 -0.00822475 0.0242796 -0.0362042 -9.33953 4.3165 
7047 441 3 1.008 0.03 11.5683 14.2289 3.39312 60.7507 14.2289 101.758 1 0 2 0.00213988 0.00992699 0.0269629 7.91564 -8.17478 -14.2268 
7043 441 2 12.01 0.14 11.5647 15.1303 3.96902 60.7471 15.1303 102.334 1 0 2 0.00151091 -0.00532652 -0.003091 -20.9371 15.4405 14.74 
7044 441 2 12.01 0.14 10.5401 14.8574 5.07207 59.7225 14.8574 103.437 1 0 2 0.0046719 0.000805153 -0.000949825 13.6216 21.9862 36.7465 
7050 441 3 1.008 0.03 10.5534 13.88 5.55611 59.7358 13.88 103.921 1 0 2 0.014521 -0.00978006 0.00837483 4.87777 -5.12879 -12.0108 
7042 441 1 16 -0.4 10.8738 15.7751 6.12195 60.0562 15.7751 104.487 1 0 2 0.000908116 0.0023298 -0.000115385 -25.3198 -6.7668 20.3502 
2445 153 3 1.008 0.03 13.2536 15.8641 6.47221 111.618 65.0465 6.47221 2 1 0 -0.00333524 -0.015542 -0.025999 -6.40261 -24.8655 -16.2967 
7682 481 1 16 -0.4 14.776 15.4959 0.98287 14.776 163.043 0.98287 0 3 0 0.00431724 0.000679 0.00613723 -14.4595 -7.8932 -16.9801 
7695 481 3 1.008 0.03 14.9588 14.5899 2.81242 14.9588 162.137 2.81242 0 3 0 -0.00311328 0.00294752 -0.00785143 -13.7179 -6.36112 18.1585 
7686 481 2 12.01 0.11 15.5261 15.1502 2.11783 15.5261 162.697 2.11783 0 3 0 0.00256387 0.00150437 0.00138934 39.1983 20.3079 1.10922 
4216 264 3 1.008 0.03 9.37785 12.5491 3.05 9.37785 -85.8156 -46.1323 0 -2 -1 -0.00914558 0.0240837 0.0125156 6.94256 -2.60469 5.20874 
2439 153 3 1.008 0.03 15.6028 15.9826 5.62775 113.968 65.1649 5.62775 2 1 0 0.000155285 0.0122915 0.0291557 -6.28107 -4.78443 0.311698 
7696 481 3 1.008 0.03 16.3259 14.4951 1.79638 16.3259 162.042 1.79638 0 3 0 0.00789465 0.0185644 0.0427801 3.54903 -3.99469 -0.170541 
7041 441 1 16 -0.4 11.0097 16.2427 3.26092 60.1921 16.2427 101.626 1 0 2 -0.00305298 -0.00183926 -0.00377261 30.0599 -19.4345 -8.15445 
7048 441 3 1.008 0.03 12.5631 15.3892 4.34808 61.7454 15.3892 102.713 1 0 2 -0.0235631 0.0291487 -0.00187311 -3.61964 -8.00884 -1.8938 