ITEM: TIMESTEP
2200000
ITEM: NUMBER OF ATOMS
10479
ITEM: BOX BOUNDS pp pp pp
4.0882558190751794e-01 4.9591174418091420e+01
4.0882558190751794e-01 4.9591174418091420e+01
4.0882558190751794e-01 4.9591174418091420e+01
ITEM: ATOMS id mol type mass q x y z xu yu zu ix iy iz vx vy vz fx fy fz 
2164 136 2 12.01 0.14 7.49402 0.465444 3.32451 105.859 0.465444 3.32451 2 0 0 0.000387775 0.00240362 -0.00303443 5.47043 60.5443 28.3359 
3907 245 2 12.01 0.14 4.21185 2.85284 5.22659 4.21185 52.0352 103.591 0 1 2 0.00271422 0.00382827 -0.00438956 -4.58764 69.4098 4.6618 
3911 245 3 1.008 0.03 4.32436 2.01677 4.65563 4.32436 51.1991 103.02 0 1 2 -0.0215216 -0.0126919 0.0180142 -2.72404 -46.3928 -21.3561 
4398 275 3 1.008 0.03 4.75678 6.93786 5.4818 103.121 6.93786 -43.7005 2 0 -1 0.00381117 -0.00911028 0.00131989 15.2503 6.03001 -12.0688 
6194 388 1 16 -0.4 7.35487 3.90315 0.798791 56.5372 -94.4615 -48.3836 1 -2 -1 -0.00160978 0.00248182 0.00061637 19.5242 7.4583 18.9075 
1184 74 3 1.008 0.03 1.06085 7.91342 6.33562 1.06085 57.0958 55.518 0 1 1 0.0161089 -0.00885004 -0.00581873 -9.44403 -11.2834 25.8968 
1182 74 3 1.008 0.03 2.25878 7.88296 5.09479 2.25878 57.0653 54.2771 0 1 1 0.0188884 -0.0137071 -0.00560771 22.592 -6.57133 -1.25204 
3905 245 1 16 -0.4 4.14827 3.96914 4.27096 4.14827 53.1515 102.636 0 1 2 -0.00342562 -0.00358732 -0.000748078 7.49471 -26.0521 20.5396 
1174 74 2 12.01 0.11 1.43338 8.41356 5.49531 1.43338 57.5959 54.6777 0 1 1 0.000924426 -0.00629523 0.00510284 -24.9832 25.2928 -39.6262 
3916 245 3 1.008 0.03 6.12246 4.61639 3.94531 6.12246 53.7987 102.31 0 1 2 0.00701089 -0.00178135 -0.00689872 -20.0503 -19.5818 -17.1045 
3909 245 2 12.01 0.11 5.29284 4.04006 3.42365 5.29284 53.2224 101.788 0 1 2 -0.00239398 -0.00489053 -0.00365117 3.65474 17.2548 23.0086 
3917 245 3 1.008 0.03 5.61371 3.06577 3.08158 5.61371 52.2481 101.446 0 1 2 0.00114989 0.00940072 0.0144917 4.79744 -4.9164 0.0314362 
6207 388 3 1.008 0.03 8.20717 4.20658 2.77669 57.3895 -94.1581 -46.4057 1 -2 -1 0.0190335 0.0333568 0.00936514 -5.00343 2.10704 -24.5835 
4399 275 3 1.008 0.03 4.93498 6.73389 3.82316 103.3 6.73389 -45.3592 2 0 -1 -0.015719 -0.00123238 0.0107286 -4.15774 -2.84317 -23.8459 
3915 245 3 1.008 0.03 4.95513 4.56835 2.54395 4.95513 53.7507 100.909 0 1 2 -0.0138417 -0.0622001 -0.0131128 5.01702 7.53856 -5.01612 
2176 136 3 1.008 0.03 7.43571 1.1643 6.52888 105.8 1.1643 6.52888 2 0 0 -0.00770253 -0.0233688 0.00895567 3.05129 -1.96753 16.6885 
6198 388 2 12.01 0.11 8.27825 4.55116 1.7088 57.4606 -93.8135 -47.4735 1 -2 -1 0.00202791 0.000716638 -0.000949185 -0.505145 4.03479 16.0055 
2162 136 1 16 -0.4 6.97541 0.467235 4.69562 105.34 0.467235 4.69562 2 0 0 -0.00207579 0.00323641 0.00214499 15.7908 -6.21989 -28.1996 
9454 591 3 1.008 0.03 1.92384 1.36736 3.02038 1.92384 50.5497 52.2027 0 1 1 0.00505442 -0.0193168 -0.0122909 3.25557 -3.62324 -26.3966 
9442 591 1 16 -0.4 2.84285 1.73986 1.12298 2.84285 50.9222 50.3053 0 1 1 -0.000390728 0.00155369 -0.000567137 28.4403 1.47931 -1.87502 
9449 591 3 1.008 0.03 2.12706 3.6441 1.50755 2.12706 52.8264 50.6899 0 1 1 -0.0313241 0.0209528 0.000333588 -0.728223 -6.55992 4.08048 
2170 136 3 1.008 0.03 7.36016 1.55631 2.97562 105.725 1.55631 2.97562 2 0 0 0.0291216 0.0110399 -0.000386437 0.706239 -44.2171 2.86 
9446 591 2 12.01 0.11 1.98039 1.05413 1.93908 1.98039 50.2365 51.1214 0 1 1 0.00394748 0.00147033 0.00271193 -16.1114 -19.7129 23.2444 
9444 591 2 12.01 0.14 2.37555 2.97737 0.681035 2.37555 52.1597 49.8634 0 1 1 -0.000283238 0.00148204 0.00425825 -22.4927 1.37071 -2.56895 
3908 245 2 12.01 0.14 2.87265 2.8819 6.06256 2.87265 52.0642 104.427 0 1 2 -0.00235288 0.000540732 0.001389 42.9008 -19.1776 -22.9859 
3912 245 3 1.008 0.03 5.16573 2.90025 5.78741 5.16573 52.0826 104.152 0 1 2 -0.0249764 -0.0121705 0.0224542 -17.3119 5.27543 4.7793 
3906 245 1 16 -0.4 2.01907 1.95826 5.46129 2.01907 51.1406 103.826 0 1 2 -0.000721801 -0.00210601 0.00043353 -25.9702 -6.9183 -6.70182 
2175 136 3 1.008 0.03 7.38048 2.37222 5.28958 105.745 2.37222 5.28958 2 0 0 0.000687298 0.00734479 -0.00965928 3.43776 4.26548 -0.212902 
2166 136 2 12.01 0.11 7.71256 1.36414 5.51743 106.077 1.36414 5.51743 2 0 0 -0.00470022 -0.0061613 0.00857543 -17.8112 -0.167598 -18.7064 
3914 245 3 1.008 0.03 2.52553 3.8968 6.07543 2.52553 53.0791 104.44 0 1 2 0.00266055 -0.0136784 0.0102275 -11.8917 9.1504 9.03708 
6206 388 3 1.008 0.03 8.07189 5.65782 1.75059 57.2542 -92.7069 -47.4318 1 -2 -1 -0.00705328 0.0133295 -0.0112455 8.81227 -23.6013 -5.40524 
1176 74 3 1.008 0.03 1.26777 7.95352 1.65587 1.26777 57.1359 50.8382 0 1 1 0.00191459 0.0272601 0.00134556 6.0793 2.12395 8.86375 
9647 604 6 16 -0.53 7.95016 8.42533 1.66053 7.95016 57.6077 1.66053 0 1 0 0.00300275 -0.000984839 0.0020506 -29.1428 -18.6205 2.33111 
9447 591 3 1.008 0.03 4.37974 3.51408 0.525515 4.37974 52.6964 49.7079 0 1 1 0.0055523 0.00772225 -0.023069 21.3897 1.84294 3.81501 
1170 74 1 16 -0.4 0.4477 8.45782 4.46494 0.4477 57.6402 53.6473 0 1 1 0.007765 0.00450675 -0.00155614 -1.61641 -16.4039 3.16346 
3919 245 3 1.008 0.03 0.744372 1.48203 7.07874 0.744372 50.6644 105.443 0 1 2 -0.00535426 0.00249773 0.00504694 2.82258 -1.21833 -2.00926 
4390 275 2 12.01 0.11 5.34321 7.31664 4.60619 103.708 7.31664 -44.5762 2 0 -1 -0.00416629 0.000988548 -0.00117703 -27.2985 16.4059 41.8733 
4400 275 3 1.008 0.03 6.38546 7.06035 4.75828 104.75 7.06035 -44.4241 2 0 -1 -0.000258035 -0.0262642 0.00115486 5.38726 1.65623 -1.78082 
6533 409 2 12.01 0.11 4.13137 8.59853 0.80547 151.678 8.59853 49.9878 3 0 1 0.00390075 -0.005542 0.00172131 17.2007 30.8302 -36.7744 
3910 245 2 12.01 0.11 0.717946 1.88374 6.06271 0.717946 51.0661 104.427 0 1 2 -0.00181621 -0.00373537 -0.00635441 10.8422 6.63714 -3.80518 
9455 591 3 1.008 0.03 1.01403 1.02979 1.47816 1.01403 50.2121 50.6605 0 1 1 0.0220769 -0.00377091 0.0110145 -16.2291 5.8438 1.55784 
4223 264 3 1.008 0.03 0.631634 5.69846 2.82556 0.631634 -43.4839 -95.5391 0 -1 -2 0.0202167 -0.0110372 0.0216213 -4.20167 -5.39102 -2.26679 
6541 409 3 1.008 0.03 3.90583 7.70642 1.22096 151.453 7.70642 50.4033 3 0 1 0.0195485 -0.0135709 -0.0389333 -18.5971 -49.0433 18.9154 
3913 245 3 1.008 0.03 3.0194 2.44231 7.0276 3.0194 51.6247 105.392 0 1 2 0.0274802 -0.0163372 -0.0257249 6.36003 7.57328 17.9876 
6208 388 3 1.008 0.03 9.33122 4.33743 1.41541 58.5136 -94.0273 -47.7669 1 -2 -1 -0.0213615 -0.018596 -0.00610985 -13.5084 7.76037 3.50696 
2112 132 3 1.008 0.03 10.634 5.94432 4.36945 -38.5483 -92.4204 53.5518 -1 -2 1 0.00613749 -0.0117971 -0.00855203 21.8831 3.27453 1.27689 
2102 132 2 12.01 0.11 11.7559 5.92457 4.35469 -37.4265 -92.4401 53.537 -1 -2 1 0.000999062 -0.0020525 0.0100891 -9.29311 -11.1535 -33.1998 
2105 132 3 1.008 0.03 14.0517 6.42422 5.64062 -35.1307 -91.9405 54.823 -1 -2 1 -0.00953418 -0.0023651 -0.000280589 14.0227 38.0147 -12.232 
2098 132 1 16 -0.4 12.2538 5.53198 5.60468 -36.9286 -92.8327 54.787 -1 -2 1 -0.00785747 -0.00109693 0.000489922 -6.69478 -10.8131 14.9014 
2110 132 3 1.008 0.03 12.1518 6.91109 4.09511 -37.0306 -91.4536 53.2775 -1 -2 1 0.0335662 0.00150712 -0.00560941 -4.57139 -0.684691 -0.26086 
5954 373 1 16 -0.4 15.3502 6.87278 3.06359 -33.8321 105.237 52.2459 -1 2 1 0.000135112 -0.00235137 0.00593563 -5.33576 -25.7449 26.4518 
5958 373 2 12.01 0.11 16.0739 5.65058 2.85649 -33.1085 104.015 52.0388 -1 2 1 -0.00236052 0.00170265 -0.000775878 -26.0358 -8.73521 -4.10193 
2628 165 2 12.01 0.14 12.2863 1.94918 2.4149 12.2863 51.1315 100.78 0 1 2 0.000159971 -0.00708613 -0.000791578 -44.8648 19.2822 -44.0173 
2634 165 3 1.008 0.03 13.22 2.38882 2.13635 13.22 51.5712 100.501 0 1 2 -0.0139898 -0.0178234 -0.0129595 14.7808 6.82256 0.325561 
5956 373 2 12.01 0.14 15.4404 7.7798 2.00853 -33.7419 106.145 51.1909 -1 2 1 -0.00500507 -0.00484427 -0.00686051 22.56 -9.6219 -42.9694 
2632 165 3 1.008 0.03 12.271 2.49548 4.46953 12.271 51.6778 102.834 0 1 2 -0.00963503 -0.0170198 0.0128375 -6.61492 -2.92756 -3.55619 
2627 165 2 12.01 0.14 12.2792 1.58233 3.85904 12.2792 50.7647 102.224 0 1 2 0.00446561 0.00288572 0.0111933 16.0683 -20.5297 29.9436 
2111 132 3 1.008 0.03 12.0419 5.21319 3.52485 -37.1404 -93.1515 52.7072 -1 -2 1 -0.0137543 0.00900824 -0.0198373 -3.71205 15.2942 21.9677 
2106 132 3 1.008 0.03 14.1327 4.85459 4.9024 -35.0497 -93.5101 54.0847 -1 -2 1 0.0041476 0.000561006 0.00541976 -15.1421 11.6721 25.0786 
9583 600 8 19 -0.16 10.7521 1.09978 7.1642 -38.4302 1.09978 7.1642 -1 0 0 -0.00335448 -0.0027195 0.00229087 -5.96266 29.0087 12.3252 
2100 132 2 12.01 0.14 13.6618 5.4745 5.72851 -35.5205 -92.8902 54.9109 -1 -2 1 0.0126753 0.0017004 -0.00246668 5.94546 -39.6998 -27.0678 
2250 141 3 1.008 0.03 9.3853 7.85003 6.84893 9.3853 7.85003 56.0313 0 0 1 0.00697166 0.00916523 0.00205406 -6.91789 -11.556 1.13862 
9581 600 7 12.01 0.35 11.0616 2.40843 7.33332 -38.1208 2.40843 7.33332 -1 0 0 0.00266785 -0.00492759 0.00387794 -41.2434 -30.9985 2.21408 
9762 612 8 19 -0.16 15.6262 1.43357 1.64179 -33.5562 50.6159 1.64179 -1 1 0 -0.00395565 -0.00600655 -0.00119819 -33.6653 -22.7221 -13.8007 
9646 604 6 16 -0.53 10.373 8.05582 1.43967 10.373 57.2382 1.43967 0 1 0 -0.00606092 0.00334353 0.000741265 -1.83821 5.49424 8.88518 
5968 373 3 1.008 0.03 15.7755 5.17513 1.93684 -33.4068 103.54 51.1192 -1 2 1 0.00826414 0.0110582 -0.0154058 -11.7021 -5.47113 -4.05798 
9764 612 8 19 -0.16 16.152 2.39549 3.4277 -33.0303 51.5778 3.4277 -1 1 0 0.00237408 -0.00402031 -0.000585782 -1.61811 14.5462 -3.55726 
9582 600 8 19 -0.16 10.5144 3.02687 6.31044 -38.6679 3.02687 6.31044 -1 0 0 -0.00903167 0.0027894 0.00493313 3.1853 4.25909 -11.1386 
5961 373 3 1.008 0.03 15.1385 7.2338 1.0565 -34.0438 105.599 50.2388 -1 2 1 -0.00870081 -0.0236732 -0.00230432 3.61206 19.0232 26.1398 
9584 600 8 19 -0.16 12.3352 2.43272 7.20036 -36.8471 2.43272 7.20036 -1 0 0 0.00423986 0.00398359 -0.00296061 29.8928 11.5548 -7.92936 
5967 373 3 1.008 0.03 16.1041 4.8337 3.62468 -33.0783 103.198 52.807 -1 2 1 0.00252016 0.00276168 -0.00974406 -1.9846 25.1071 -5.30099 
2637 165 3 1.008 0.03 13.9579 1.79024 6.03002 13.9579 50.9726 104.395 0 1 2 -0.007361 -0.0190904 -0.0148487 -10.539 -45.1589 -13.1106 
2631 165 3 1.008 0.03 11.4444 0.923798 4.12409 11.4444 50.1061 102.489 0 1 2 0.00357584 0.00177488 -0.0135411 -2.32579 9.33634 -1.52279 
2629 165 2 12.01 0.11 13.6397 0.764457 5.59368 13.6397 49.9468 103.958 0 1 2 -0.0044798 0.00874137 0.00152436 33.7343 19.4966 5.97543 
2625 165 1 16 -0.4 13.4847 0.882543 4.19617 13.4847 50.0649 102.561 0 1 2 0.00229717 -0.00109981 -0.00140587 -9.23746 4.65788 -9.49377 
2174 136 3 1.008 0.03 8.7803 1.29959 5.35203 107.145 1.29959 5.35203 2 0 0 0.00966945 0.0153392 -0.013975 6.78019 -1.99733 5.90789 
9761 612 7 12.01 0.35 16.6199 1.90151 2.29518 -32.5624 51.0839 2.29518 -1 1 0 -0.00557723 -0.000625141 0.0105289 48.9985 -11.8792 -10.7874 
5962 373 3 1.008 0.03 16.4934 8.08496 1.83936 -32.6889 106.45 51.0217 -1 2 1 -0.0273964 -0.0328749 0.000645415 -12.9755 1.24855 4.47849 
7899 494 3 1.008 0.03 16.4426 6.54443 6.12144 -32.7398 104.909 55.3038 -1 2 1 -0.00722022 -0.0247417 0.0177725 -19.5021 -16.8258 -10.7313 
5959 373 3 1.008 0.03 13.5533 8.50742 2.48893 -35.629 106.872 51.6713 -1 2 1 -0.00728055 0.00160517 -0.00846492 -7.49956 7.41211 11.0093 
2103 132 3 1.008 0.03 15.0529 4.60152 7.1674 -34.1295 -93.7632 56.3497 -1 -2 1 -0.012029 -0.00268092 0.0155415 10.2298 3.94134 -5.06894 
2626 165 1 16 -0.4 11.9548 0.894627 1.4706 11.9548 50.077 99.8353 0 1 2 -0.00496024 -0.00128206 0.0136798 5.84747 21.4206 19.8207 
2099 132 2 12.01 0.14 14.0592 5.02115 7.12448 -35.1231 -93.3435 56.3068 -1 -2 1 0.00298594 -0.00483379 0.00506971 -13.2466 -9.57707 10.4078 
2633 165 3 1.008 0.03 11.4931 2.75818 2.25019 11.4931 51.9405 100.615 0 1 2 0.00805705 -0.0177095 0.0383412 26.1127 -23.9553 9.61278 
2255 141 3 1.008 0.03 11.3001 7.12574 7.37047 11.3001 7.12574 56.5528 0 0 1 0.00488556 0.02698 -0.0381273 4.25049 3.36591 8.60384 
9759 612 6 16 -0.53 18.7375 0.420878 1.39983 -30.4449 49.6032 1.39983 -1 1 0 -0.00370494 0.00961523 -0.00386129 -38.0977 2.084 24.9928 
9758 612 5 32.06 1.02 17.9445 0.612526 2.63042 -31.2379 49.7949 2.63042 -1 1 0 -0.00206864 -0.00235928 -0.00317831 46.0828 41.8931 -53.5954 
5966 373 3 1.008 0.03 17.0098 5.96371 2.57074 -32.1726 104.328 51.7531 -1 2 1 -0.00969813 -0.0367272 -0.0223087 47.3148 3.16916 2.3489 
5912 370 3 1.008 0.03 24.1738 5.13595 1.90755 24.1738 54.3183 1.90755 0 1 0 -0.0104378 0.00321377 0.0261042 19.6858 16.213 19.65 
2369 149 1 16 -0.4 23.7663 1.9158 4.99804 23.7663 51.0982 4.99804 0 1 0 0.00153305 -0.006029 -0.00171571 11.9679 7.88024 19.2411 
7895 494 3 1.008 0.03 17.4961 8.13573 4.44798 -31.6862 106.5 53.6303 -1 2 1 -0.0415113 -0.00336336 0.00592729 -3.8802 -2.38024 16.3974 
5915 370 3 1.008 0.03 22.8298 6.68614 3.42345 22.8298 55.8685 3.42345 0 1 0 -0.00553665 -0.0154137 -0.0132928 2.08712 -10.4801 3.06825 
10475 686 9 24.305 2 22.8649 1.11403 3.59701 22.8649 50.2964 3.59701 0 1 0 0.00306845 -0.00395457 -0.00557995 24.6167 -17.4823 -34.5568 
9757 612 4 14.01 -0.66 18.7588 1.38954 3.67472 -30.4235 50.5719 3.67472 -1 1 0 0.00304778 0.00413472 0.00121893 14.7047 7.71666 30.0942 
5916 370 3 1.008 0.03 21.6578 6.79945 2.21563 21.6578 55.9818 2.21563 0 1 0 0.025151 -0.00679043 -0.0380504 -5.37745 1.84921 -12.2489 
5917 370 3 1.008 0.03 21.1204 6.21437 3.75542 21.1204 55.3967 3.75542 0 1 0 0.0152219 -0.00789299 0.0260613 19.4502 -5.92099 -12.0819 
5905 370 1 16 -0.4 22.1945 4.84239 2.55833 22.1945 54.0247 2.55833 0 1 0 0.000339325 -0.00175704 -0.00525567 20.6717 14.3535 -16.4621 
5913 370 3 1.008 0.03 22.3921 2.9104 1.05932 22.3921 52.0928 1.05932 0 1 0 0.0291063 0.00348918 0.00343523 14.478 5.1746 2.29565 
9763 612 8 19 -0.16 17.0847 2.86328 1.47873 -32.0976 52.0456 1.47873 -1 1 0 -0.000120876 0.00486414 0.00139765 -6.21272 -0.164184 26.1918 
9770 612 8 19 -0.16 19.8923 2.44677 6.18146 -29.2901 51.6291 6.18146 -1 1 0 -0.00231488 0.00184899 -0.00357529 3.2938 9.59795 -14.5596 
9769 612 8 19 -0.16 18.525 3.76655 5.23196 -30.6573 52.9489 5.23196 -1 1 0 0.000708945 0.000330941 0.00438523 -30.1563 15.592 18.3131 
9768 612 7 12.01 0.35 19.7126 3.28563 5.14727 -29.4697 52.468 5.14727 -1 1 0 0.000106595 -0.00396446 -0.00131865 25.4314 23.2294 2.53097 
9771 612 8 19 -0.16 20.5708 4.33202 5.25342 -28.6116 53.5144 5.25342 -1 1 0 -0.00108489 -0.00120468 0.00621725 -16.2744 -26.8355 6.77887 
9766 612 6 16 -0.53 19.4977 3.56896 2.63075 -29.6846 52.7513 2.63075 -1 1 0 0.00260909 -0.000107927 -0.00348603 -10.7605 26.6948 -22.8199 
9765 612 5 32.06 1.02 19.8203 2.53154 3.52834 -29.362 51.7139 3.52834 -1 1 0 -0.00048222 -0.0022063 0.00113333 3.61378 -43.1704 5.90372 
9767 612 6 16 -0.53 21.1786 2.03765 3.53765 -28.0038 51.22 3.53765 -1 1 0 0.00210228 -0.00822069 0.00616719 -3.86335 10.2578 0.731988 
2381 149 3 1.008 0.03 22.7022 3.44346 5.83876 22.7022 52.6258 5.83876 0 1 0 -0.0187021 -0.0161821 -0.0115594 -19.2232 1.45324 -0.574227 
5909 370 2 12.01 0.11 21.9659 6.15601 3.01735 21.9659 55.3384 3.01735 0 1 0 -0.00254 0.00650661 -0.00736699 -23.0301 17.0839 20.9529 
5907 370 2 12.01 0.14 23.2322 4.84936 1.55092 23.2322 54.0317 1.55092 0 1 0 0.0100344 0.00218096 -0.00481897 -2.69099 -41.02 -0.251414 
5908 370 2 12.01 0.14 23.3994 3.33572 1.25505 23.3994 52.5181 1.25505 0 1 0 0.00267531 -0.00146923 0.00117986 -14.4221 -8.46211 0.170779 
2385 150 1 16 -0.4 22.736 6.70858 6.05352 -75.6286 6.70858 55.2359 -2 0 1 0.00120661 -0.00652617 0.00467606 -29.3995 10.2828 38.3257 
2373 149 2 12.01 0.11 23.7012 3.2082 5.56216 23.7012 52.3906 5.56216 0 1 0 0.000612838 0.00137508 0.00452621 16.1462 46.9239 -1.85376 
2379 149 3 1.008 0.03 24.2643 3.49393 6.47752 24.2643 52.6763 6.47752 0 1 0 0.00207807 0.000101778 0.0269484 -0.574593 -19.115 -9.98948 
7891 494 2 12.01 0.14 17.9126 8.37732 5.44778 -31.2697 106.742 54.6301 -1 2 1 -0.0120766 -0.00384186 0.000613855 -17.8282 21.0409 -22.4515 
5906 370 1 16 -0.4 24.0797 2.5122 2.23122 24.0797 51.6946 2.23122 0 1 0 -0.00752729 -0.00293618 -0.00520625 -15.7489 1.2795 22.0739 
7889 494 1 16 -0.4 18.3566 7.14723 5.99477 -30.8257 105.512 55.1771 -1 2 1 -0.00542237 0.00371151 0.00319863 15.3759 4.118 3.88257 
2393 150 3 1.008 0.03 24.5635 7.92822 4.3727 -73.8012 7.92822 53.5551 -2 0 1 -0.019033 -0.0246607 -0.00234519 -7.85905 -11.6249 3.04609 
8286 518 3 1.008 0.03 21.376 0.928759 0.43766 21.376 50.1111 0.43766 0 1 0 0.0154726 -0.0155047 0.00996198 15.4374 -17.3539 4.49677 
2380 149 3 1.008 0.03 24.0171 3.97377 4.81415 24.0171 53.1561 4.81415 0 1 0 -0.0182311 0.00721904 0.00645 -6.07094 -14.1018 8.45026 
5911 370 3 1.008 0.03 23.1679 5.42696 0.608708 23.1679 54.6093 0.608708 0 1 0 0.0186389 0.00867152 0.0298373 -20.4472 -3.26633 12.1542 
2387 150 2 12.01 0.14 24.0089 7.14532 6.44216 -74.3558 7.14532 55.6245 -2 0 1 -0.000483361 0.003007 -0.00201861 33.2254 -13.0288 -33.6255 
2392 150 3 1.008 0.03 24.4014 6.425 7.15177 -73.9633 6.425 56.3341 -2 0 1 0.00215224 0.0153047 0.00190294 8.1714 -2.27259 0.79998 
2376 149 3 1.008 0.03 24.8891 1.12904 6.59452 24.8891 50.3114 6.59452 0 1 0 -0.0318298 0.00590856 -0.00599325 -16.4001 -7.12951 24.0074 
7900 494 3 1.008 0.03 17.7533 5.35876 6.80701 -31.4291 103.723 55.9894 -1 2 1 -0.00820149 -0.0210344 0.00105869 -18.6715 12.3279 -8.47441 
2397 150 3 1.008 0.03 20.9154 6.24733 6.88943 -77.4493 6.24733 56.0718 -2 0 1 -0.00654135 0.0143768 0.00186809 2.37231 26.0316 14.5832 
2389 150 2 12.01 0.11 21.883 6.65019 7.26825 -76.4817 6.65019 56.4506 -2 0 1 -0.00897166 -0.00273646 -0.00523901 16.2174 -37.8877 -77.9879 
2371 149 2 12.01 0.14 24.8958 1.25752 5.54934 24.8958 50.4399 5.54934 0 1 0 -0.00446209 0.00108485 0.00710339 -0.732475 -20.1834 -3.75504 
2388 150 2 12.01 0.14 24.9966 7.38205 5.22041 -73.3681 7.38205 54.4028 -2 0 1 0.00060418 -0.00385182 0.000741876 -5.61554 6.57616 11.8449 
7893 494 2 12.01 0.11 17.3562 6.39016 6.64015 -31.8261 104.755 55.8225 -1 2 1 -0.00502593 0.00512374 -0.00461921 37.0702 -3.09833 -6.82239 
2391 150 3 1.008 0.03 23.9537 8.05209 6.96504 -74.411 8.05209 56.1474 -2 0 1 0.0145557 -0.0119494 -0.0270914 -5.26457 25.8373 13.5151 
1172 74 2 12.01 0.14 0.815389 9.27312 3.36722 0.815389 58.4555 52.5496 0 1 1 -0.00519188 -0.00287704 0.00541746 52.5156 -13.4078 18.5997 
3659 229 3 1.008 0.03 1.05991 14.3777 1.90553 1.05991 63.5601 1.90553 0 1 0 0.00545459 0.0157003 0.0267444 1.91946 -2.29021 -26.5904 
6540 409 3 1.008 0.03 3.77077 9.3507 1.48236 151.318 9.3507 50.6647 3 0 1 0.0301042 0.00983703 0.0113668 -8.57918 9.5969 0.914697 
6539 409 3 1.008 0.03 5.2135 8.61886 0.870908 152.761 8.61886 50.0533 3 0 1 -0.00124711 -0.00502512 0.00628077 4.09187 4.75847 -4.60464 
3664 229 3 1.008 0.03 6.12784 10.716 0.723857 6.12784 59.8984 0.723857 0 1 0 -0.00198847 0.00365004 0.0174254 -1.19431 -4.90061 -11.5658 
3658 229 3 1.008 0.03 4.58325 11.4164 2.42471 4.58325 60.5987 2.42471 0 1 0 0.0147828 -0.0235243 -0.0436648 3.59416 -21.7325 7.12049 
655 41 3 1.008 0.03 0.515599 12.6694 6.41759 49.6979 12.6694 55.5999 1 0 1 0.0248088 -0.0143139 -0.0155059 9.47091 5.3822 6.21545 
1177 74 3 1.008 0.03 1.95698 9.40962 3.40853 1.95698 58.592 52.5909 0 1 1 0.00344987 -0.00414934 -0.00849547 -40.6128 9.93548 -5.43898 
4397 275 3 1.008 0.03 2.77826 12.1718 6.24774 101.143 12.1718 -42.9346 2 0 -1 0.0201921 -0.0113622 -0.00705518 -35.2814 8.82317 8.94551 
3654 229 2 12.01 0.11 6.23415 11.7901 0.625446 6.23415 60.9724 0.625446 0 1 0 -0.00199248 0.0060725 0.00171847 50.1245 27.246 29.0111 
4386 275 1 16 -0.4 5.07045 8.73626 4.51489 103.435 8.73626 -44.6675 2 0 -1 0.00509158 -0.00312408 0.00175499 8.78875 -23.5762 6.39043 
4391 275 3 1.008 0.03 5.81233 11.0304 4.31997 104.177 11.0304 -44.8624 2 0 -1 0.00539481 0.000537473 0.00536226 13.9036 5.09523 1.67494 
9859 618 8 19 -0.16 8.16407 16.1691 1.5679 57.3464 65.3515 1.5679 1 1 0 0.00179286 0.00147137 -0.00313374 -10.1607 -7.73911 3.51292 
9858 618 7 12.01 0.35 7.37862 15.6934 2.53777 56.561 64.8757 2.53777 1 1 0 -0.00580262 -0.00372023 -0.00279927 11.8505 -15.819 28.7969 
9857 618 6 16 -0.53 5.26222 15.1011 1.10573 54.4446 64.2834 1.10573 1 1 0 0.00543169 0.00285111 -0.00289065 3.09822 1.69415 -16.5367 
3657 229 3 1.008 0.03 4.90238 13.1179 2.64863 4.90238 62.3002 2.64863 0 1 0 0.00247672 0.0163005 0.00215979 6.40782 -13.6821 -2.3262 
9861 618 8 19 -0.16 7.73123 14.3954 2.73367 56.9136 63.5778 2.73367 1 1 0 0.00158841 0.00283997 -0.00359824 -16.1801 26.8024 -7.53046 
9855 618 5 32.06 1.02 5.57129 15.9786 2.20458 54.7536 65.1609 2.20458 1 1 0 -0.00285252 -0.00652361 -0.00320243 3.21219 16.8426 -3.04416 
9860 618 8 19 -0.16 7.74796 16.3502 3.64517 56.9303 65.5326 3.64517 1 1 0 -0.000194718 -0.00103135 -0.00319513 -1.58463 -9.91872 -11.1078 
4387 275 2 12.01 0.14 5.50833 10.8997 5.35322 103.873 10.8997 -43.8291 2 0 -1 0.00148824 -0.00209016 -0.00249257 -21.9333 11.8807 10.0592 
4388 275 2 12.01 0.14 5.52184 9.4149 5.68987 103.887 9.4149 -43.4925 2 0 -1 0.00697017 -0.00615052 0.00189348 -3.7492 17.5986 -11.0176 
4393 275 3 1.008 0.03 6.5583 9.18066 5.87851 104.923 9.18066 -43.3038 2 0 -1 0.00848324 0.00816542 -0.00604007 4.98373 -7.98881 6.60387 
4394 275 3 1.008 0.03 4.89994 9.29349 6.58121 103.265 9.29349 -42.6011 2 0 -1 -0.017968 -0.030473 -0.0334303 3.10757 -11.576 -1.5118 
9847 618 4 14.01 -0.66 4.74198 15.4788 3.45614 53.9243 64.6611 3.45614 1 1 0 0.0010617 -0.00957794 -0.00305497 19.4682 15.7993 3.60356 
3663 229 3 1.008 0.03 6.77757 12.0711 1.58792 6.77757 61.2535 1.58792 0 1 0 0.0293881 0.00601818 -0.0147892 -9.22895 -7.91064 -30.6027 
3651 229 2 12.01 0.14 2.99786 12.7445 1.92425 2.99786 61.9268 1.92425 0 1 0 0.00412703 -0.0056219 -0.00469505 -3.69358 -38.1694 -6.33897 
3655 229 3 1.008 0.03 2.68859 12.9546 2.91673 2.68859 62.137 2.91673 0 1 0 -0.00934067 -0.0248664 0.00460024 -8.80923 15.7816 17.1262 
3650 229 1 16 -0.4 5.02296 12.506 0.638061 5.02296 61.6884 0.638061 0 1 0 0.0046536 0.00206555 -0.00139148 -18.8074 -10.9076 21.5832 
3652 229 2 12.01 0.14 4.46679 12.3674 1.97432 4.46679 61.5498 1.97432 0 1 0 0.00805707 -0.00708688 0.00266892 -5.45499 42.7344 -15.2889 
4392 275 3 1.008 0.03 6.07286 11.5243 6.079 104.438 11.5243 -43.1033 2 0 -1 -0.00555349 -0.0238857 0.0378263 2.90471 -9.66719 -14.367 
4385 275 1 16 -0.4 4.15091 11.3351 5.36381 102.516 11.3351 -43.8185 2 0 -1 -0.00275206 -0.00217625 -0.00301969 8.70824 -5.17231 5.92743 
9848 618 5 32.06 1.02 4.42192 16.2847 4.78037 53.6043 65.467 4.78037 1 1 0 -0.00178004 0.00325437 -0.0018982 31.9956 -14.7367 -13.7771 
3656 229 3 1.008 0.03 2.52527 11.763 1.7601 2.52527 60.9453 1.7601 0 1 0 0.00889612 -0.000453607 0.00762337 -8.95163 13.6011 -13.7509 
9849 618 6 16 -0.53 3.76869 15.4501 5.73813 52.951 64.6324 5.73813 1 1 0 -0.00550888 -0.00543977 0.0020821 -5.0114 -7.5378 15.7056 
8064 504 3 1.008 0.03 7.29139 13.9444 6.57912 56.4737 63.1267 104.944 1 1 2 -0.00205897 0.00297431 -0.0317321 -3.37022 22.7661 16.87 
9649 604 8 19 -0.16 8.33379 10.6533 3.30403 8.33379 59.8357 3.30403 0 1 0 0.00867816 -0.00056888 -0.00148973 -3.00159 1.82164 -3.5563 
1183 74 3 1.008 0.03 1.62691 9.46631 5.67745 1.62691 58.6487 54.8598 0 1 1 -0.00943131 0.000877919 -0.00899239 11.5251 -0.109707 14.0402 
8063 504 3 1.008 0.03 6.37691 15.4611 7.05892 55.5593 64.6435 105.424 1 1 2 -0.0254841 -0.00178998 0.014316 1.99666 -27.3969 13.2251 
3653 229 2 12.01 0.11 1.37064 14.1533 0.842718 1.37064 63.3357 0.842718 0 1 0 -0.000317918 0.00142989 0.00425952 -2.64772 -22.4805 66.4065 
4396 275 3 1.008 0.03 4.24796 13.0555 6.41498 102.613 13.0555 -42.7674 2 0 -1 0.00986373 -0.00747409 -0.0142808 -1.69098 -14.136 19.843 
3649 229 1 16 -0.4 2.73822 13.774 0.951165 2.73822 62.9564 0.951165 0 1 0 -0.00112035 0.00134361 0.00445321 16.9253 -1.78837 -12.1071 
4389 275 2 12.01 0.11 3.77412 12.0589 6.52951 102.139 12.0589 -42.6528 2 0 -1 -0.00222687 -0.0020692 -0.000194184 24.8161 3.22286 -39.3342 
1171 74 2 12.01 0.14 0.4988 8.63029 2.03198 0.4988 57.8126 51.2143 0 1 1 0.00514949 0.00112219 0.00299471 14.2543 4.68267 4.71626 
3661 229 3 1.008 0.03 0.77232 13.2711 0.551201 0.77232 62.4534 0.551201 0 1 0 -0.0234776 -0.0038065 0.00194692 0.913837 16.2001 -8.68567 
5965 373 3 1.008 0.03 15.2386 8.71602 4.81507 -33.9437 107.081 53.9974 -1 2 1 0.0176107 -0.0059289 0.0272119 5.12983 -7.10279 1.99095 
5957 373 2 12.01 0.11 14.6687 9.57187 4.50441 -34.5137 107.937 53.6868 -1 2 1 -0.00272775 -0.00951691 -0.000578262 9.94367 3.40483 2.70448 
5964 373 3 1.008 0.03 13.6523 9.28785 4.61891 -35.5301 107.653 53.8013 -1 2 1 -0.0169826 0.0201191 -0.0217754 -20.5843 -2.84188 0.313447 
10150 638 6 16 -0.53 13.7807 11.7206 7.03644 13.7807 11.7206 56.2188 0 0 1 -0.00298393 0.00405546 0.00292001 -8.35038 30.9068 8.17454 
2247 141 3 1.008 0.03 8.6682 10.1982 6.51795 8.6682 10.1982 55.7003 0 0 1 -0.0250584 -0.0131917 -0.0196579 12.8826 7.0318 2.95039 
10153 638 8 19 -0.16 12.5725 14.565 6.7301 12.5725 14.565 55.9124 0 0 1 -0.00203003 0.00364742 -0.000450625 -40.1141 6.83449 -10.7134 
8058 504 3 1.008 0.03 9.31403 15.5066 6.30637 58.4964 64.689 104.671 1 1 2 0.00725837 0.0215961 0.00875754 -15.8695 -13.8514 -5.57429 
9645 604 5 32.06 1.02 9.24026 8.95791 1.41442 9.24026 58.1403 1.41442 0 1 0 -0.00197347 -0.00406177 -0.000377985 14.8971 16.1683 -24.1166 
2243 141 2 12.01 0.14 9.60694 9.96329 7.05532 9.60694 9.96329 56.2377 0 0 1 0.000189614 -0.00294324 -0.00109722 -43.8032 -33.6546 35.5092 
9650 604 8 19 -0.16 9.86088 9.32789 3.96063 9.86088 58.5102 3.96063 0 1 0 -0.00583889 -0.00356701 -0.00139673 -13.0907 -13.2808 7.48483 
5955 373 2 12.01 0.14 14.5213 8.95592 2.29646 -34.661 107.321 51.4788 -1 2 1 0.000270212 0.00545272 0.00459469 -29.2256 15.3632 -71.3884 
5960 373 3 1.008 0.03 14.2997 9.58292 1.35507 -34.8827 107.948 50.5374 -1 2 1 0.00200002 -0.0117892 -0.000470435 14.1864 -29.9055 29.1209 
9648 604 7 12.01 0.35 9.42646 10.0114 2.9229 9.42646 59.1937 2.9229 0 1 0 0.00134013 -0.00249776 0.00304376 34.3754 1.85835 -2.22917 
9651 604 8 19 -0.16 10.3967 10.8943 2.80541 10.3967 60.0766 2.80541 0 1 0 -0.0057513 0.00443853 0.00237442 -3.72692 13.0253 -12.6644 
4957 310 3 1.008 0.03 14.659 11.9291 1.90795 63.8414 11.9291 1.90795 1 0 0 -0.0188748 -0.0113958 -0.000213299 -0.393068 30.6435 10.6595 
9821 616 7 12.01 0.35 11.4853 15.1999 3.06858 60.6676 15.1999 3.06858 1 0 0 0.0102527 -0.00193011 -0.00709852 29.2384 -55.3375 48.4766 
9823 616 8 19 -0.16 12.4504 14.5224 3.86036 61.6327 14.5224 3.86036 1 0 0 -0.000227708 0.00238804 -0.00101413 -55.8085 42.0648 -46.426 
9824 616 8 19 -0.16 11.2246 14.402 2.0401 60.4069 14.402 2.0401 1 0 0 0.00320345 -0.000368778 0.00297034 4.19419 -1.05224 3.87246 
9826 616 6 16 -0.53 14.4306 16.0505 4.5388 63.6129 16.0505 4.5388 1 0 0 -0.00400282 -0.00401949 -0.00348592 9.51779 -10.1047 -2.82992 
9820 616 6 16 -0.53 13.1467 16.3961 1.55966 62.3291 16.3961 1.55966 1 0 0 5.18361e-05 0.00663803 -0.000250993 1.29227 20.289 48.1161 
9822 616 8 19 -0.16 10.3417 15.2046 3.78171 59.524 15.2046 3.78171 1 0 0 0.00278208 0.00267252 0.00308246 20.275 13.767 -6.4718 
4949 310 2 12.01 0.11 14.2556 12.8335 2.45549 63.438 12.8335 2.45549 1 0 0 0.00180787 0.00480648 0.0054381 21.3468 4.89204 -44.7417 
4955 310 3 1.008 0.03 13.9398 12.4612 3.3758 63.1221 12.4612 3.3758 1 0 0 0.00135169 0.00264624 0.00700233 -19.7507 -9.41959 26.7128 
4945 310 1 16 -0.4 15.1721 13.9265 2.72663 64.3544 13.9265 2.72663 1 0 0 -0.0033465 -0.000110608 0.000308018 -2.68172 -5.24953 -6.08609 
4956 310 3 1.008 0.03 13.4302 13.2022 1.816 62.6126 13.2022 1.816 1 0 0 -0.0202982 0.00813776 -0.00357749 2.32002 -4.77592 13.1381 
4952 310 3 1.008 0.03 15.0329 14.742 0.663597 64.2152 14.742 0.663597 1 0 0 0.0195587 0.0275204 -0.0138798 -8.4284 -14.081 14.561 
10454 665 9 24.305 2 15.9208 14.6562 4.4769 65.1031 14.6562 4.4769 1 0 0 0.00220676 0.00262056 -0.00113467 0.304697 1.99756 -11.4083 
5953 373 1 16 -0.4 14.9803 9.93313 3.16471 -34.202 108.298 52.3471 -1 2 1 -0.00498487 0.00523823 -0.00542379 7.10167 5.46109 30.1963 
4947 310 2 12.01 0.14 15.711 14.402 1.46909 64.8934 14.402 1.46909 1 0 0 -0.0013235 -0.00776429 -0.0050442 0.303577 13.8789 -4.79511 
5963 373 3 1.008 0.03 14.8351 10.3508 5.2436 -34.3472 108.716 54.4259 -1 2 1 0.0206348 0.00600495 0.00930108 6.71236 2.9241 -7.66641 
4954 310 3 1.008 0.03 16.08 16.4104 1.21868 65.2624 16.4104 1.21868 1 0 0 0.00809809 -0.0172324 0.011811 0.605419 17.0622 -1.84784 
2248 141 3 1.008 0.03 10.3883 9.97472 6.35766 10.3883 9.97472 55.54 0 0 1 0.0252702 0.00828453 -0.0157642 25.7599 -1.49133 -16.4546 
4951 310 3 1.008 0.03 16.2973 13.6423 0.992027 65.4797 13.6423 0.992027 1 0 0 -0.0125707 0.000708972 -0.00678242 5.18129 -15.031 -1.98173 
4948 310 2 12.01 0.14 16.6239 15.6032 1.67065 65.8063 15.6032 1.67065 1 0 0 0.00365501 -0.00134033 -0.00760239 -1.53996 -26.1567 -31.5724 
10149 638 6 16 -0.53 15.0521 13.5273 6.00589 15.0521 13.5273 55.1882 0 0 1 -0.00198781 0.00632187 -0.00382122 22.7953 20.4198 -22.2862 
4946 310 1 16 -0.4 16.7958 15.8279 3.05385 65.9782 15.8279 3.05385 1 0 0 0.00286678 0.0053869 0.00149277 4.0931 -12.2814 32.2606 
7805 488 3 1.008 0.03 16.0127 16.7158 7.06087 65.1951 16.7158 7.06087 1 0 0 -0.00351634 0.036619 0.0254606 -26.0328 5.86091 5.68036 
8052 504 2 12.01 0.14 8.95566 15.9486 7.22898 58.138 65.1309 105.594 1 1 2 -0.00382448 0.00491557 -0.00825041 -13.3708 14.4933 8.59682 
10148 638 5 32.06 1.02 14.4886 12.9805 7.21218 14.4886 12.9805 56.3945 0 0 1 0.00210535 -0.00323544 -0.000212173 -1.11197 -30.42 13.475 
2251 141 3 1.008 0.03 9.5437 12.5521 7.03208 9.5437 12.5521 56.2144 0 0 1 -0.0192686 0.00876017 0.00866078 15.3688 -9.22267 14.0464 
2253 141 3 1.008 0.03 11.2617 12.0272 7.30366 11.2617 12.0272 56.486 0 0 1 -0.00359645 0.0127164 -0.00773343 -7.32282 1.76407 2.33493 
5722 358 3 1.008 0.03 24.9865 16.2662 5.03462 24.9865 114.631 -44.1477 0 2 -1 0.0176939 -0.0116789 0.0116555 7.40283 1.61018 12.9568 
7903 494 3 1.008 0.03 20.8455 9.91705 7.00366 -28.3368 108.282 56.186 -1 2 1 -0.0090059 0.0197996 -0.00508329 1.97123 -9.33734 -0.372819 
2366 148 3 1.008 0.03 23.5334 13.0752 7.26786 -25.649 111.44 154.815 -1 2 3 0.0249654 -0.00148168 -0.0332162 6.86108 1.62876 11.6875 