ITEM: TIMESTEP
2150000
ITEM: NUMBER OF ATOMS
10479
ITEM: BOX BOUNDS pp pp pp
4.0882558190751794e-01 4.9591174418091420e+01
4.0882558190751794e-01 4.9591174418091420e+01
4.0882558190751794e-01 4.9591174418091420e+01
ITEM: ATOMS id mol type mass q x y z xu yu zu ix iy iz vx vy vz fx fy fz 
84 6 2 12.01 0.14 6.41085 5.56838 3.18968 -91.9538 -43.614 52.372 -2 -1 1 -0.00336288 0.000410131 -0.0027576 42.1333 35.4515 0.627301 
90 6 3 1.008 0.03 5.4695 5.28031 2.87687 -92.8952 -43.902 52.0592 -2 -1 1 -0.00414931 -0.0198539 -0.00465945 -30.9996 -18.5493 -21.0113 
83 6 2 12.01 0.14 7.57211 4.55518 2.91798 -90.7926 -44.6272 52.1003 -2 -1 1 0.00167175 -0.00137086 -0.0018031 14.6498 15.6018 11.1508 
92 6 3 1.008 0.03 7.31361 1.3201 3.37599 -91.0511 -47.8622 52.5583 -2 -1 1 -0.0072619 0.00699645 -0.0323755 25.9404 19.6957 -0.20332 
81 6 1 16 -0.4 7.0832 3.38057 3.48349 -91.2815 -45.8018 52.6658 -2 -1 1 -0.000299858 0.00499779 0.00229503 31.6985 -50.0056 -10.4934 
88 6 3 1.008 0.03 7.69011 4.41269 1.84345 -90.6746 -44.7697 51.0258 -2 -1 1 0.00384323 -0.0105084 -0.00573747 0.163321 0.671181 -0.0637095 
85 6 2 12.01 0.11 7.99486 2.22349 3.34652 -90.3698 -46.9589 52.5289 -2 -1 1 -0.00504156 0.00695588 0.00153899 -28.4445 5.53106 9.95867 
6265 392 3 1.008 0.03 3.61787 7.70194 2.68189 3.61787 7.70194 101.047 0 0 2 0.0109324 0.0103897 0.00319704 1.49437 4.04364 -4.57197 
9645 604 5 32.06 1.02 6.66444 8.43375 0.508001 6.66444 57.6161 0.508001 0 1 0 0.000758999 -0.00150258 -0.00123709 -25.3491 5.30583 23.9923 
87 6 3 1.008 0.03 8.60231 4.79893 3.34512 -89.7624 -44.3834 52.5275 -2 -1 1 0.0146695 -0.0274395 -0.00911901 -34.9597 0.434472 -9.46211 
89 6 3 1.008 0.03 6.58524 6.54381 2.68691 -91.7795 -42.6385 51.8693 -2 -1 1 0.0099694 0.0192236 -0.002646 1.36101 -21.2292 4.06322 
82 6 1 16 -0.4 6.29617 5.95236 4.53434 -92.0685 -43.23 53.7167 -2 -1 1 -0.0022679 0.000438036 -0.00823882 16.8046 2.12118 10.7954 
93 6 3 1.008 0.03 8.57538 2.18033 2.4224 -89.7893 -47.002 51.6047 -2 -1 1 0.00585908 0.0155139 0.00478014 -8.85209 5.77885 -0.543067 
95 6 3 1.008 0.03 6.00497 4.02492 5.37591 -92.3597 -45.1574 54.5583 -2 -1 1 -0.010464 0.000154532 0.00264632 -0.117471 4.98992 6.19446 
86 6 2 12.01 0.11 5.59952 5.03871 5.33599 -92.7652 -44.1436 54.5183 -2 -1 1 0.00586795 -0.000558756 0.00306353 3.96372 20.4776 38.3513 
7712 482 3 1.008 0.03 1.65761 1.15927 7.42905 149.205 50.3416 56.6114 3 1 1 0.00846312 -0.0373111 0.0206903 -11.4087 -11.3853 -0.364401 
94 6 3 1.008 0.03 4.62779 5.00669 4.909 -93.7369 -44.1757 54.0913 -2 -1 1 0.0289575 0.00102279 -0.0060594 -21.3205 -5.91318 1.89547 
6272 392 3 1.008 0.03 3.56862 8.58958 5.3792 3.56862 8.58958 103.744 0 0 2 0.00192488 -0.0129934 0.00857291 12.4155 0.629163 1.54583 
2249 141 3 1.008 0.03 7.88998 7.01636 6.65081 7.88998 7.01636 55.8332 0 0 1 -0.0305002 -0.0227998 -0.00192246 23.3394 -2.79432 -24.1152 
3922 246 1 16 -0.4 3.4008 1.97241 2.19556 3.4008 -96.3923 51.3779 0 -2 1 -0.00408186 -0.00232833 0.00249761 -3.77091 -11.5635 -20.6995 
2247 141 3 1.008 0.03 8.12359 7.47038 4.3231 8.12359 7.47038 53.5055 0 0 1 -0.01949 0.00950603 -0.00745949 -14.7902 6.79686 -13.0798 
3934 246 3 1.008 0.03 3.49933 3.70748 3.32236 3.49933 -94.6572 52.5047 0 -2 1 -0.0191724 -0.0125311 -0.0130738 -4.6335 20.215 -12.9213 
3926 246 2 12.01 0.11 3.28111 2.67065 3.37996 3.28111 -95.694 52.5623 0 -2 1 4.43222e-05 0.0040263 -0.00168564 16.5142 1.68334 32.5415 
6263 392 3 1.008 0.03 1.55876 8.14197 1.52223 1.55876 8.14197 99.8869 0 0 2 -0.000868482 0.00343106 0.00899715 5.12897 13.1391 -11.2818 
3936 246 3 1.008 0.03 4.08951 2.37328 4.03277 4.08951 -95.9914 53.2151 0 -2 1 -0.00474093 -0.00614194 0.0284488 0.461144 -8.31176 2.76668 
9651 604 8 19 -0.16 8.51916 7.37855 2.05633 8.51916 56.5609 2.05633 0 1 0 0.000552371 5.95338e-05 -0.00176329 -0.126671 -16.9084 18.6765 
3929 246 3 1.008 0.03 2.26108 3.41535 1.14998 2.26108 -94.9493 50.3323 0 -2 1 0.0211269 0.0131485 0.0104466 5.24115 -46.5543 16.4189 
6258 392 1 16 -0.4 2.16948 8.36659 3.98456 2.16948 8.36659 102.349 0 0 2 -0.00162313 0.000917075 0.0109491 -7.35495 25.2203 -54.8269 
6262 392 2 12.01 0.11 2.76389 7.92593 5.11669 2.76389 7.92593 103.481 0 0 2 -0.00158365 0.00377865 -0.00850396 35.7391 -20.7573 -0.316192 
6270 392 3 1.008 0.03 2.07817 8.02711 5.8823 2.07817 8.02711 104.247 0 0 2 0.00573024 0.0183326 0.0180134 -25.3194 -3.34212 29.0154 
96 6 3 1.008 0.03 5.54497 5.50437 6.37814 -92.8197 -43.678 55.5605 -2 -1 1 0.0248434 -0.00738182 0.0212545 -0.911214 -20.2894 -31.0014 
6271 392 3 1.008 0.03 3.07836 6.86737 5.03422 3.07836 6.86737 103.399 0 0 2 0.0116207 0.0103678 -0.0129657 0.164542 12.3882 1.58669 
6206 388 3 1.008 0.03 5.68337 1.09496 4.95358 54.8657 -97.2697 -44.2288 1 -2 -1 -0.0083625 -0.0261714 -0.00212215 -2.52571 17.2052 11.5746 
3924 246 2 12.01 0.14 2.31255 2.26873 1.34052 2.31255 -96.096 50.5229 0 -2 1 -0.00259019 0.00248646 -0.00146324 -31.7756 66.8258 -12.8115 
7705 482 3 1.008 0.03 1.16898 3.87372 7.12729 148.716 53.0561 56.3096 3 1 1 -0.0241563 0.010248 0.00908059 11.6226 1.73204 18.0025 
9648 604 7 12.01 0.35 8.41238 8.1295 1.00643 8.41238 57.3118 1.00643 0 1 0 0.00698576 0.00338232 -0.0114092 27.972 -2.70052 -61.8311 
3935 246 3 1.008 0.03 2.3655 2.53259 3.93289 2.3655 -95.8321 53.1152 0 -2 1 0.0153423 0.00128985 -0.0370139 -9.92564 -4.23256 -0.0208735 
9589 600 8 19 -0.16 8.28006 3.20156 6.46282 -40.9023 3.20156 6.46282 -1 0 0 -0.00697721 0.000641276 -0.00200355 -22.4855 4.52712 -17.5456 
3930 246 3 1.008 0.03 1.30464 2.01605 1.7769 1.30464 -96.3486 50.9593 0 -2 1 -0.0209825 -0.00316887 -0.0255674 23.0389 0.58703 -8.06434 
6201 388 3 1.008 0.03 5.97443 1.07326 7.33932 55.1568 -97.2914 -41.843 1 -2 -1 0.0152949 -0.0118044 -0.00934995 -10.9608 25.7486 -8.21751 
91 6 3 1.008 0.03 8.7725 2.16912 4.13636 -89.5922 -47.0132 53.3187 -2 -1 1 -0.0154863 0.022598 -0.0118332 -15.6431 2.48763 -3.92529 
2097 132 1 16 -0.4 14.1814 0.999857 0.754337 -35.001 -97.3648 49.9367 -1 -2 1 -0.00130383 -0.00760733 -0.00206188 -15.7562 -5.87772 6.40514 
2243 141 2 12.01 0.14 9.00768 7.66721 4.87323 9.00768 7.66721 54.0556 0 0 1 0.00242864 0.00306969 0.00190599 22.2359 -20.7005 9.0052 
2250 141 3 1.008 0.03 8.77938 5.80072 5.86319 8.77938 5.80072 55.0455 0 0 1 -0.0161358 0.00876908 -0.0115768 6.58827 -40.0081 -6.64164 
2244 141 2 12.01 0.14 8.8693 6.79629 6.12564 8.8693 6.79629 55.308 0 0 1 0.00376557 0.000178255 0.00739202 -4.51563 51.7257 48.0412 
2112 132 3 1.008 0.03 10.4769 0.502909 4.08057 -38.7055 -97.8618 53.2629 -1 -2 1 0.019828 -0.0152203 0.0165936 10.3204 1.69459 2.15321 
2102 132 2 12.01 0.11 11.5653 0.503027 4.26918 -37.6171 -97.8617 53.4515 -1 -2 1 -0.00298372 0.00646165 0.00428735 -14.0114 -3.2984 -1.47226 
2098 132 1 16 -0.4 12.2278 1.05719 3.14314 -36.9546 -97.3075 52.3255 -1 -2 1 0.00238361 -0.00291749 0.00398105 10.1219 23.067 -5.76487 
4411 276 3 1.008 0.03 11.2061 3.50485 1.95445 11.2061 52.6872 100.319 0 1 2 0.0142298 -0.0120998 0.00755563 -4.17791 -4.96283 0.199186 
4405 276 2 12.01 0.11 11.6069 4.50844 1.9483 11.6069 53.6908 100.313 0 1 2 0.00131552 0.000251491 3.91363e-05 -6.89444 21.0384 -36.7519 
2248 141 3 1.008 0.03 9.86026 7.37618 4.21364 9.86026 7.37618 53.396 0 0 1 0.0306176 -0.0279983 0.0100383 -9.51175 8.34975 13.3956 
4687 293 3 1.008 0.03 16.4588 0.719196 2.95798 -32.7235 49.9015 52.1403 -1 1 1 -0.00337322 -0.0183815 -0.00792607 7.89163 -7.24114 20.0581 
9591 600 8 19 -0.16 10.3998 3.35107 6.21572 -38.7825 3.35107 6.21572 -1 0 0 0.000663397 0.00358001 -0.00626436 -22.9272 7.37973 12.973 
9588 600 7 12.01 0.35 9.40462 3.06521 7.08487 -39.7777 3.06521 7.08487 -1 0 0 0.00119106 0.00824406 0.00340456 42.4262 7.64735 17.1692 
4678 293 2 12.01 0.11 16.7283 0.619973 4.04382 -32.4541 49.8023 53.2262 -1 1 1 0.00142364 0.00116054 -0.00218617 -30.7298 15.9342 -24.7401 
4674 293 1 16 -0.4 16.4485 1.87077 4.68464 -32.7339 51.0531 53.867 -1 1 1 -0.00418896 0.00339953 0.00338623 0.443198 -6.67277 -7.66331 
4676 293 2 12.01 0.14 15.2277 2.47582 4.24188 -33.9547 51.6582 53.4242 -1 1 1 0.00351083 0.0101186 0.000570636 9.57264 -8.75475 2.3997 
4680 293 3 1.008 0.03 16.3853 3.03524 2.54613 -32.7971 52.2176 51.7285 -1 1 1 -0.0169357 -0.0106117 -0.00314902 7.07501 -1.47485 -13.2897 
4681 293 3 1.008 0.03 15.0307 3.1586 5.05901 -34.1516 52.341 54.2414 -1 1 1 0.00505023 -0.00837913 -0.0125942 -10.0636 6.03456 -1.91292 
4682 293 3 1.008 0.03 14.4249 1.73821 4.179 -34.7575 50.9206 53.3614 -1 1 1 0.0032755 -0.00804843 0.0195452 0.38327 1.8276 3.96855 
4675 293 2 12.01 0.14 15.3861 3.21826 2.8969 -33.7962 52.4006 52.0792 -1 1 1 -0.00253332 -0.00733246 0.00664385 -23.4366 43.8292 24.5937 
4673 293 1 16 -0.4 15.1535 4.66131 3.09116 -34.0288 53.8437 52.2735 -1 1 1 -0.00302619 0.00650766 0.00234192 17.4035 -27.1206 -7.59415 
4679 293 3 1.008 0.03 14.6022 2.93941 2.18873 -34.5801 52.1218 51.3711 -1 1 1 0.00969959 0.000344036 -0.0265154 7.82297 -8.90791 -0.562692 
4412 276 3 1.008 0.03 12.4629 4.43787 2.647 12.4629 53.6202 101.012 0 1 2 0.029007 -0.0212135 0.00368887 -10.6848 12.4847 -4.20465 
2254 141 3 1.008 0.03 11.2264 5.78091 6.25678 11.2264 5.78091 55.4391 0 0 1 0.00444521 0.00629941 -0.0131917 1.26448 -2.43045 -0.690495 
4683 293 3 1.008 0.03 14.821 4.9755 1.0889 -34.3613 54.1578 50.2713 -1 1 1 -0.037937 0.00151055 0.00252193 16.8207 14.3193 13.5373 
4685 293 3 1.008 0.03 16.5447 5.14078 1.64388 -32.6376 54.3231 50.8262 -1 1 1 0.0120947 -0.0245875 -0.0121427 -9.93598 8.36029 -0.622086 
4677 293 2 12.01 0.11 15.4945 5.37375 1.90078 -33.6878 54.5561 51.0831 -1 1 1 0.00569857 0.00626379 -0.00555353 -17.173 11.0596 -6.96962 
2255 141 3 1.008 0.03 11.4902 7.51746 6.05242 11.4902 7.51746 55.2348 0 0 1 -0.00865778 0.00220776 0.00405682 10.4484 11.0975 -20.4324 
4684 293 3 1.008 0.03 15.3408 6.50388 2.00902 -33.8415 55.6862 51.1914 -1 1 1 -0.00233172 0.0126204 -0.00141869 5.70549 -37.2743 -2.7611 
4413 276 3 1.008 0.03 10.741 5.18947 2.26839 10.741 54.3718 100.633 0 1 2 -0.0315241 -0.013804 0.00980399 33.8808 -19.6023 -5.09121 
7900 494 3 1.008 0.03 13.7821 4.5136 6.87778 -35.4003 102.878 56.0601 -1 2 1 -0.0321638 0.00197685 0.00985576 -8.52031 -12.2538 30.5017 
2242 141 1 16 -0.4 9.87458 7.13012 7.16442 9.87458 7.13012 56.3468 0 0 1 0.00723721 -0.001507 3.94629e-05 -29.46 -11.5511 -15.7024 
2246 141 2 12.01 0.11 11.1849 6.76257 6.72326 11.1849 6.76257 55.9056 0 0 1 0.00584447 0.000701168 0.00212483 -13.0257 -0.503031 16.9001 
4223 264 3 1.008 0.03 9.00599 1.2403 0.571436 9.00599 -47.942 -97.7933 0 -1 -2 -0.0150754 -0.0147228 2.49743e-05 0.835574 -6.6191 -17.2891 
9586 600 6 16 -0.53 9.33755 0.611264 6.48931 -39.8448 0.611264 6.48931 -1 0 0 -0.00249522 0.00644039 -0.00445592 -19.1529 -20.4259 -15.9978 
7580 474 3 1.008 0.03 15.4916 0.936895 7.26548 15.4916 -48.2455 -41.9169 0 -1 -1 -0.024098 -0.0118831 0.0250607 17.6487 -9.21087 21.344 
4401 276 1 16 -0.4 12.0458 4.78297 0.548482 12.0458 53.9653 98.9132 0 1 2 0.0018665 0.00499164 -0.00120726 -16.0602 -27.1121 46.9705 
4408 276 3 1.008 0.03 12.6104 6.69472 0.962049 12.6104 55.8771 99.3267 0 1 2 0.0102821 0.00650733 -0.0206282 13.2078 1.96958 10.9224 
2111 132 3 1.008 0.03 11.7582 1.06393 5.21901 -37.4242 -97.3008 54.4014 -1 -2 1 -0.00316154 -0.00365428 -0.0241142 0.227758 -9.9006 -18.5343 
2099 132 2 12.01 0.14 12.7553 1.05242 0.67292 -36.427 -97.3123 49.8553 -1 -2 1 -0.00212815 -0.000502886 -0.00146935 26.342 28.0107 33.1905 
2103 132 3 1.008 0.03 12.415 2.09227 0.518571 -36.7673 -96.2724 49.7009 -1 -2 1 -0.0134112 -0.00390804 -0.0191417 0.0498119 -10.5157 5.39233 
5913 370 3 1.008 0.03 24.9791 2.72504 3.68828 24.9791 51.9074 3.68828 0 1 0 0.000597127 -0.00130456 0.00973604 5.38731 -8.04479 -2.21018 
2369 149 1 16 -0.4 24.7183 1.06211 6.03607 24.7183 50.2445 6.03607 0 1 0 0.0036092 0.00124677 -0.00718425 -42.5422 30.8646 26.6532 
4379 274 3 1.008 0.03 23.9004 6.34169 4.58162 73.0828 104.706 -44.6007 1 2 -1 -0.0031039 0.0259118 -0.0204668 -1.03391 -6.28991 11.0596 
9766 612 6 16 -0.53 22.0892 2.03648 1.68242 -27.0931 51.2188 1.68242 -1 1 0 0.00146808 -0.00220838 0.00218222 -5.73632 -19.7158 -0.119525 
4369 274 1 16 -0.4 23.8662 4.91836 3.12821 73.0486 103.283 -46.0541 1 2 -1 0.0016461 -0.00279289 0.00146617 -31.3832 17.656 39.2367 
4380 274 3 1.008 0.03 22.3071 6.39357 3.94258 71.4895 104.758 -45.2398 1 2 -1 -0.019079 3.07917e-05 0.00313616 21.2468 -31.0941 -6.3214 
9769 612 8 19 -0.16 19.5611 2.08514 3.20803 -29.6213 51.2675 3.20803 -1 1 0 -0.00389332 0.00420096 0.000865346 1.17199 18.3844 14.883 
2381 149 3 1.008 0.03 23.2181 2.52975 5.77548 23.2181 51.7121 5.77548 0 1 0 -0.0144539 -0.0161168 0.00452805 -15.8296 20.3716 -28.4806 
9770 612 8 19 -0.16 20.4864 1.27836 5.00326 -28.696 50.4607 5.00326 -1 1 0 -0.000362938 -0.00195673 -0.00193951 8.82123 34.5598 -35.766 
9768 612 7 12.01 0.35 20.7176 2.01265 3.85675 -28.4648 51.195 3.85675 -1 1 0 0.00387102 0.00244276 0.0021554 -14.4326 -63.7008 20.3581 
9771 612 8 19 -0.16 21.1412 3.21707 4.18081 -28.0412 52.3994 4.18081 -1 1 0 0.00357681 -0.00467321 -0.000531044 -4.35795 5.72851 4.24186 
9765 612 5 32.06 1.02 21.9055 1.12184 2.78641 -27.2768 50.3042 2.78641 -1 1 0 0.00165083 0.00567352 0.00550181 35.5205 22.3206 21.1892 
9767 612 6 16 -0.53 23.0865 0.997635 3.66193 -26.0958 50.18 3.66193 -1 1 0 0.000858293 -0.00359817 0.0116831 -20.6824 -12.035 -14.3372 
2373 149 2 12.01 0.11 23.7466 2.05971 6.52841 23.7466 51.2421 6.52841 0 1 0 -0.00952106 -0.0024353 0.000521392 32.2352 -48.1276 46.1538 
5953 373 1 16 -0.4 18.8483 7.21871 5.66839 -30.334 105.583 54.8507 -1 2 1 -0.00218861 -0.00852747 -0.00825874 26.0979 0.171921 -2.80252 
5962 373 3 1.008 0.03 19.6638 4.97645 4.68807 -29.5185 103.341 53.8704 -1 2 1 0.0123362 0.0300854 -0.0213808 22.7226 9.86828 -19.9697 
4373 274 2 12.01 0.11 23.146 5.65912 4.18673 72.3284 104.024 -44.9956 1 2 -1 -0.00535054 0.00832189 -0.00020641 2.10686 5.36843 -25.7814 
4381 274 3 1.008 0.03 22.7596 4.93416 4.92314 71.9419 103.299 -44.2592 1 2 -1 0.0037931 0.00164074 0.0180084 7.51679 9.85506 0.00344176 
5961 373 3 1.008 0.03 18.6635 3.86792 5.42083 -30.5188 102.233 54.6032 -1 2 1 0.00747393 0.0045159 0.022333 -0.791752 19.4786 8.47089 
348 22 3 1.008 0.03 20.1151 3.72447 1.33968 69.2975 3.72447 148.887 1 0 3 0.00643934 0.0137378 -0.00382976 3.14085 18.7433 -0.185943 
341 22 2 12.01 0.11 19.9056 4.81861 1.28783 69.0879 4.81861 148.835 1 0 3 -0.00487671 -0.00262148 -0.000450853 18.9884 -20.7503 18.4376 
5956 373 2 12.01 0.14 19.1445 4.86298 5.58941 -30.0379 103.228 54.7718 -1 2 1 0.00304252 -0.00896478 0.00104099 -38.7328 -27.4661 33.3468 
2380 149 3 1.008 0.03 24.302 2.79441 7.13638 24.302 51.9768 7.13638 0 1 0 0.00116264 -0.00174948 -0.0285089 -9.08794 0.171281 -9.88282 
4376 274 3 1.008 0.03 24.1837 6.59676 1.83043 73.366 104.961 -47.3519 1 2 -1 0.00228943 -0.0110735 -0.0265595 -14.9648 -29.2055 8.06978 
5960 373 3 1.008 0.03 17.4694 5.89985 4.94824 -31.713 104.265 54.1306 -1 2 1 0.0142615 0.0132919 -0.0219929 -5.44703 7.64321 3.68227 
5955 373 2 12.01 0.14 18.1528 6.02584 5.79085 -31.0295 104.391 54.9732 -1 2 1 -0.00258505 -0.00440002 0.00565983 -8.35855 -27.6578 -24.1496 
349 22 3 1.008 0.03 20.2497 5.27642 2.21434 69.4321 5.27642 149.761 1 0 3 0.00494828 0.00728617 -0.0221624 0.258345 -0.117343 0.537554 
5954 373 1 16 -0.4 19.9632 4.74632 6.73846 -29.2191 103.111 55.9208 -1 2 1 0.00139789 0.00280942 -0.00400889 33.2512 11.7642 8.21023 
4371 274 2 12.01 0.14 23.7345 5.55122 1.89649 72.9169 103.916 -47.2859 1 2 -1 0.00285294 -0.0047869 -0.0039468 -11.0315 29.2214 -24.3252 
347 22 3 1.008 0.03 18.8474 4.85569 1.28541 68.0297 4.85569 148.832 1 0 3 -0.0110634 -0.0184207 -0.0228303 -20.7763 8.27424 -3.04491 
4375 274 3 1.008 0.03 22.6762 5.57805 1.58146 71.8586 103.943 -47.6009 1 2 -1 0.014923 0.0196644 0.00890666 7.82997 6.73446 11.3411 
2379 149 3 1.008 0.03 22.9883 1.56868 7.2041 22.9883 50.751 7.2041 0 1 0 0.00405042 -0.000301073 -0.00576486 17.4041 12.4991 -14.301 
5957 373 2 12.01 0.11 18.0543 8.34738 5.66747 -31.128 106.712 54.8498 -1 2 1 -0.00333294 -0.00138805 -0.00122227 -9.26206 35.5773 -15.6912 
4377 274 3 1.008 0.03 24.1066 3.58153 0.765626 73.289 101.946 -48.4167 1 2 -1 0.00204518 -0.00321217 -0.0239071 0.232738 30.24 16.275 
5965 373 3 1.008 0.03 17.454 8.49617 4.76338 -31.7283 106.861 53.9457 -1 2 1 0.0185252 0.014895 -0.0221564 1.61453 -11.4117 0.994022 
5963 373 3 1.008 0.03 17.3549 8.34763 6.49719 -31.8274 106.712 55.6795 -1 2 1 0.00169987 -0.00717111 0.022099 1.75216 6.05738 5.09915 
5959 373 3 1.008 0.03 17.5855 5.9647 6.71089 -31.5968 104.329 55.8932 -1 2 1 0.0144006 0.0113855 0.0075839 -7.30776 2.88299 -3.25245 
4372 274 2 12.01 0.14 24.3537 4.68604 0.840267 73.536 103.051 -48.3421 1 2 -1 0.000254044 -0.00635196 0.00474501 56.1339 -30.5881 -48.7131 
7579 474 3 1.008 0.03 17.2332 1.20842 7.16019 17.2332 -47.9739 -42.0222 0 -1 -1 -0.00313317 0.0250121 -0.0237415 -22.2455 -11.0084 29.4679 
6260 392 2 12.01 0.14 3.06945 8.63197 2.86002 3.06945 8.63197 101.225 0 0 2 -0.00760134 0.00962122 -0.00260028 -15.002 -3.79632 25.8836 
6264 392 3 1.008 0.03 2.85947 9.26876 0.753379 2.85947 9.26876 99.1181 0 0 2 -0.0225738 0.00390728 0.0025762 -8.40573 -29.4061 24.283 
3787 237 3 1.008 0.03 6.99913 14.7387 0.620761 6.99913 63.9211 0.620761 0 1 0 -0.000964988 -0.0406672 0.00370432 16.4653 -13.1726 18.4127 
9647 604 6 16 -0.53 5.98248 8.9199 1.71242 5.98248 58.1022 1.71242 0 1 0 0.00315754 -0.00274938 -0.00256701 24.9476 -14.5929 -18.5627 
6259 392 2 12.01 0.14 2.2294 9.01486 1.65851 2.2294 9.01486 100.023 0 0 2 0.000730194 -0.000497525 -9.72221e-05 3.56008 -16.2438 -43.6785 
6261 392 2 12.01 0.11 0.705297 10.4205 0.616689 0.705297 10.4205 98.9814 0 0 2 -0.00250369 -0.0022455 0.000352033 -21.3595 -11.4156 -6.68953 
6266 392 3 1.008 0.03 3.78286 9.43669 2.985 3.78286 9.43669 101.35 0 0 2 -0.00415258 -0.0158548 -0.000260223 1.90614 1.65271 14.209 
1178 74 3 1.008 0.03 0.895635 11.1401 4.13996 0.895635 60.3224 53.3223 0 1 1 0.0150912 0.0165652 0.0100683 33.0855 8.68148 -14.8651 
6257 392 1 16 -0.4 1.51796 10.2179 1.693 1.51796 10.2179 100.058 0 0 2 -0.0016887 -0.000883546 0.00226586 11.5386 3.92651 50.7045 
3658 229 3 1.008 0.03 1.82696 12.7946 2.02002 1.82696 61.9769 2.02002 0 1 0 -0.00273552 -0.0138324 0.00879957 6.13438 -7.44439 -5.39615 
9859 618 8 19 -0.16 6.78587 12.6005 4.09169 55.9682 61.7828 4.09169 1 1 0 -0.00655281 -0.000382956 -0.00155588 -26.3902 -5.94227 18.7277 
10466 677 9 24.305 2 4.10744 15.0233 1.54865 4.10744 64.2056 1.54865 0 1 0 0.00568212 0.000891027 0.000288208 1.91174 2.40081 0.338638 
3649 229 1 16 -0.4 2.92335 15.2351 3.03602 2.92335 64.4175 3.03602 0 1 0 5.48348e-05 -0.00204532 -0.00081546 -17.2748 -17.777 -13.2142 
9858 618 7 12.01 0.35 7.57684 13.5511 3.71009 56.7592 62.7334 3.71009 1 1 0 -0.00854297 -0.00181005 -0.00643318 -3.8787 -14.7547 -4.62174 
9847 618 4 14.01 -0.66 6.57426 15.4705 5.28235 55.7566 64.6529 5.28235 1 1 0 -0.00325008 0.00414726 0.00206292 -0.102142 2.85463 -16.1994 
9855 618 5 32.06 1.02 6.85371 15.2253 3.74778 56.0361 64.4077 3.74778 1 1 0 -0.00155627 -0.00271836 0.000177282 32.0574 20.1861 -52.6551 
9857 618 6 16 -0.53 5.65982 15.0656 2.89538 54.8422 64.2479 2.89538 1 1 0 -0.00736595 0.00584753 -0.00138718 12.8938 0.746587 15.3795 
3650 229 1 16 -0.4 3.91412 13.0934 1.85467 3.91412 62.2757 1.85467 0 1 0 0.0048973 -0.00603106 -0.00210503 -10.5289 31.3052 -2.91928 
3657 229 3 1.008 0.03 2.86714 11.9142 3.20293 2.86714 61.0965 3.20293 0 1 0 -0.0165775 -0.0015749 -0.0145744 -9.90061 21.6981 -10.7767 
3652 229 2 12.01 0.14 2.73171 12.8735 2.62314 2.73171 62.0559 2.62314 0 1 0 0.000109077 0.00454817 0.009591 2.07323 -39.9976 15.1251 
9860 618 8 19 -0.16 7.84516 13.1747 2.47728 57.0275 62.357 2.47728 1 1 0 -0.00314667 -0.00336585 0.00289218 11.7115 7.49679 -5.79221 
9856 618 6 16 -0.53 7.99757 15.9247 3.10252 57.1799 65.107 3.10252 1 1 0 -0.00110658 0.000883856 -0.000426862 -50.5976 -11.1846 38.9425 
3654 229 2 12.01 0.11 4.71601 11.948 1.66748 4.71601 61.1303 1.66748 0 1 0 -0.00647439 -0.00102426 -0.0017272 25.8012 12.0836 -7.59718 
3662 229 3 1.008 0.03 5.55618 12.3016 1.02993 5.55618 61.4839 1.02993 0 1 0 0.0287096 -0.023717 -0.00302172 -9.25767 -9.83021 9.32186 
3653 229 2 12.01 0.11 2.16491 16.2212 3.67309 2.16491 65.4035 3.67309 0 1 0 0.000943615 -0.00149684 0.000763108 5.95414 -14.7408 39.2347 
3663 229 3 1.008 0.03 5.16409 11.6793 2.64162 5.16409 60.8617 2.64162 0 1 0 -0.00689742 0.00202692 0.015437 -6.78387 -9.28677 -10.8604 
3655 229 3 1.008 0.03 3.20995 13.9241 4.48845 3.20995 63.1064 4.48845 0 1 0 0.0132436 0.0102839 0.00682362 -37.5366 -4.56962 -35.3524 
3664 229 3 1.008 0.03 4.24448 11.1309 1.10901 4.24448 60.3132 1.10901 0 1 0 0.0122656 0.0153973 -0.0122 -2.35204 1.8702 10.7364 
3651 229 2 12.01 0.14 2.47456 14.0096 3.58651 2.47456 63.192 3.58651 0 1 0 -0.00252568 -0.00610494 -0.00235916 63.807 -6.44189 50.3062 
3656 229 3 1.008 0.03 1.46537 13.9909 3.97676 1.46537 63.1732 3.97676 0 1 0 0.00826406 0.0193896 -0.0135176 -8.59233 -2.43135 0.155443 
3659 229 3 1.008 0.03 1.21559 16.3861 3.22889 1.21559 65.5684 3.22889 0 1 0 0.0346277 -0.0120058 0.00320354 -16.9248 5.2347 -10.3829 
10130 636 8 19 -0.16 6.05238 10.3869 5.5939 6.05238 10.3869 54.7763 0 0 1 0.0022328 0.00102753 0.0024956 3.12507 -13.0501 -14.7097 
9852 618 8 19 -0.16 3.97914 15.2856 6.97443 53.1615 64.468 6.97443 1 1 0 -0.00439532 0.00257378 0.00372651 -8.12808 -11.2439 -9.41611 
3660 229 3 1.008 0.03 2.01099 15.9868 4.75497 2.01099 65.1692 4.75497 0 1 0 -0.011863 0.00412725 -0.0157761 1.47865 9.37159 -14.0612 
9848 618 5 32.06 1.02 5.95977 16.7601 5.9488 55.1421 65.9425 5.9488 1 1 0 0.00401969 -0.00216804 0.0018162 -1.19914 25.7098 -26.0925 
10128 636 7 12.01 0.35 5.86074 10.9199 6.76574 5.86074 10.9199 55.9481 0 0 1 -0.000599272 0.00203265 -0.00731398 34.2218 9.27369 29.5864 
10131 636 8 19 -0.16 4.69335 11.5294 6.66878 4.69335 11.5294 55.8511 0 0 1 -0.00376511 0.00562018 0.00631415 -1.3048 5.85447 7.69411 
3790 237 3 1.008 0.03 0.84612 14.9182 1.43816 0.84612 64.1006 1.43816 0 1 0 -0.00225844 -0.0107347 -0.0121884 -9.71597 1.72165 12.1987 
10129 636 8 19 -0.16 6.84102 11.8584 6.88053 6.84102 11.8584 56.0629 0 0 1 0.00506877 0.00399141 0.0010224 -28.0371 -19.0209 2.91611 
1174 74 2 12.01 0.11 0.861238 10.8433 6.66636 0.861238 60.0256 55.8487 0 1 1 -0.00236158 0.00301764 -0.0117656 -10.4491 -33.5078 -41.4302 
2252 141 3 1.008 0.03 7.76113 9.72509 3.92013 7.76113 9.72509 53.1025 0 0 1 0.0111999 -0.0127203 0.0156192 5.37544 -6.46234 10.6763 
2253 141 3 1.008 0.03 8.55146 10.9112 5.01016 8.55146 10.9112 54.1925 0 0 1 0.0160461 0.00490592 -0.00140804 8.2584 -28.1078 -15.7116 
1182 74 3 1.008 0.03 0.723677 9.7206 6.61437 0.723677 58.9029 55.7967 0 1 1 -0.0225815 0.00350811 -0.0294747 8.60282 27.6078 11.6237 
9851 618 7 12.01 0.35 4.99587 16.0233 7.33934 54.1782 65.2057 7.33934 1 1 0 0.00233409 -0.00445837 0.00210066 31.6994 29.1559 16.4885 
1183 74 3 1.008 0.03 1.81154 11.1137 6.19302 1.81154 60.296 55.3754 0 1 1 0.0181023 -0.00667001 -0.0109258 2.40515 -1.65954 10.7095 
3782 237 2 12.01 0.11 1.15589 14.7982 0.42488 1.15589 63.9805 0.42488 0 1 0 0.00199719 0.00364541 0.00729902 39.8033 -0.917411 29.3167 
4826 302 3 1.008 0.03 9.54607 12.4354 1.21378 157.093 -36.747 -47.9686 3 -1 -1 0.015003 0.00368263 0.0116858 2.15051 -16.1072 17.9966 
10159 638 8 19 -0.16 12.4395 9.15762 3.13764 12.4395 9.15762 52.32 0 0 1 -0.00179867 -0.00114627 -0.00214292 27.9298 9.04687 4.89691 
10161 638 8 19 -0.16 14.5893 8.77365 3.42352 14.5893 8.77365 52.6059 0 0 1 0.00652007 -0.00271852 0.00213052 -18.1496 2.91463 -3.8456 
8064 504 3 1.008 0.03 10.657 14.1161 5.90907 59.8394 63.2985 104.274 1 1 2 0.0024919 0.036535 -0.00338498 7.25436 -7.39006 -28.6775 
976 61 3 1.008 0.03 9.57985 10.8408 7.15344 9.57985 10.8408 56.3358 0 0 1 -0.00795161 0.0212563 0.00657022 22.4121 -13.6724 7.77577 
9861 618 8 19 -0.16 8.65859 13.4054 4.4411 57.8409 62.5878 4.4411 1 1 0 -0.002624 0.00505212 0.000132232 11.0871 6.03279 0.383255 
9650 604 8 19 -0.16 9.04625 9.2583 1.31697 9.04625 58.4407 1.31697 0 1 0 -0.00238907 0.00580008 -0.000380518 -0.62275 -5.86714 -6.76734 
10157 638 6 16 -0.53 13.6411 9.28656 5.99661 13.6411 9.28656 55.179 0 0 1 -0.000706015 0.00136498 -0.00186751 -12.0227 43.3617 -31.5709 
10158 638 7 12.01 0.35 13.6314 9.71203 3.47913 13.6314 9.71203 52.6615 0 0 1 -0.00100061 -0.00481257 -4.09472e-05 7.32463 -56.2898 -15.3898 
8057 504 3 1.008 0.03 11.4532 16.5226 6.89964 60.6355 65.7049 105.264 1 1 2 -0.0123484 0.00129531 -0.0309023 9.85686 -19.6267 12.6712 
2241 141 1 16 -0.4 9.08632 8.9567 5.41757 9.08632 8.9567 54.5999 0 0 1 -0.00194284 -0.00167859 -0.000347935 -9.12575 -10.2885 21.0068 
10151 638 7 12.01 0.35 16.5594 12.4197 6.82549 16.5594 12.4197 56.0078 0 0 1 0.000392829 -0.00285944 0.0043066 -2.83426 -30.2516 -26.0682 
2245 141 2 12.01 0.11 8.68178 9.89996 4.50519 8.68178 9.89996 53.6875 0 0 1 0.00359487 -0.000566535 0.00351407 -16.7736 50.4329 -7.41341 
4832 302 3 1.008 0.03 11.3007 14.2432 1.72402 158.848 -34.9392 -47.4583 3 -1 -1 -0.0235475 0.0110201 0.00439267 5.1408 10.5235 1.13779 
10156 638 6 16 -0.53 12.4739 11.2841 4.8691 12.4739 11.2841 54.0514 0 0 1 -0.00312316 0.00597203 -0.00733825 0.515488 -3.52183 19.667 
7806 488 3 1.008 0.03 16.4846 11.0584 2.03232 65.667 11.0584 2.03232 1 0 0 0.0157675 -0.00207149 0.0213222 17.5583 -1.08114 3.15561 
2251 141 3 1.008 0.03 9.48251 9.92609 3.79821 9.48251 9.92609 52.9806 0 0 1 -0.0186348 0.0149712 -0.020602 9.66809 10.3714 -12.6073 
4945 310 1 16 -0.4 16.1381 14.0455 1.39396 65.3204 14.0455 1.39396 1 0 0 -0.00679209 -0.00449718 0.00633147 -26.8668 -10.9508 -18.8788 
4949 310 2 12.01 0.11 14.9171 13.2308 1.26345 64.0994 13.2308 1.26345 1 0 0 0.00400614 0.00828777 -0.00720837 54.3919 -11.6193 31.7585 
10160 638 8 19 -0.16 13.9755 10.5717 2.5658 13.9755 10.5717 51.7482 0 0 1 0.000797775 -0.00307635 0.00165616 -3.53267 15.6632 -19.303 
10155 638 5 32.06 1.02 13.6356 10.4455 5.06721 13.6356 10.4455 54.2496 0 0 1 -0.00239602 0.00188131 -0.00189211 1.09718 -12.1415 35.222 
4822 302 2 12.01 0.11 10.8768 14.7669 0.862576 158.424 -34.4155 -48.3198 3 -1 -1 0.00455601 -0.00648597 0.00267556 -24.4843 -14.7495 0.820072 
4955 310 3 1.008 0.03 14.8065 12.7755 2.29314 63.9889 12.7755 2.29314 1 0 0 0.033933 -0.012487 0.00630045 -12.5589 12.9983 -28.7854 
10147 638 4 14.01 -0.66 15.0284 11.1589 4.96316 15.0284 11.1589 54.1455 0 0 1 -0.00863841 -0.001952 -0.000816014 12.0085 -8.14824 2.23462 
10150 638 6 16 -0.53 14.3789 13.4613 5.7167 14.3789 13.4613 54.899 0 0 1 -0.0078058 -0.00203299 -0.00798394 -11.7494 20.6648 13.3801 
9821 616 7 12.01 0.35 13.0988 16.7477 3.57313 62.2812 16.7477 3.57313 1 0 0 0.00770381 -0.00300327 0.00112599 -22.2099 13.6556 4.80809 
10148 638 5 32.06 1.02 15.4378 12.6154 5.30563 15.4378 12.6154 54.488 0 0 1 0.00130088 0.00408655 0.00103544 38.2692 -10.2158 16.9996 
9823 616 8 19 -0.16 13.5966 15.7518 4.26914 62.7789 15.7518 4.26914 1 0 0 0.00362343 0.00287377 0.00668582 -0.574562 -13.3352 -2.35765 
10149 638 6 16 -0.53 16.3786 13.1646 4.35228 16.3786 13.1646 53.5346 0 0 1 0.00240713 -0.00766027 -0.00100063 7.42711 7.42121 -20.6596 
9824 616 8 19 -0.16 12.1689 16.2372 2.71202 61.3513 16.2372 2.71202 1 0 0 -0.000275733 -0.00451343 -0.00222475 39.7919 16.5491 9.61211 
8058 504 3 1.008 0.03 12.7563 15.3884 6.60883 61.9387 64.5707 104.974 1 1 2 0.00388842 -0.01727 0.0151418 -11.4886 -8.5847 6.19677 
975 61 3 1.008 0.03 11.1322 10.2067 6.64743 11.1322 10.2067 55.8298 0 0 1 -0.0205302 0.0098073 0.00901019 6.23677 -8.02965 -12.2946 
8052 504 2 12.01 0.14 12.0125 15.674 7.36979 61.1949 64.8564 105.734 1 1 2 -4.9493e-05 -0.00847617 -0.00265449 5.33194 25.6233 -25.5537 
4956 310 3 1.008 0.03 14.0552 13.8075 0.937428 63.2376 13.8075 0.937428 1 0 0 0.00964717 -0.0102192 -0.00242343 -5.66295 -1.70642 1.04616 
8054 504 2 12.01 0.11 10.1129 14.3068 6.78505 59.2952 63.4892 105.15 1 1 2 0.000967929 -0.00102147 -0.00623811 13.5548 39.1291 31.9982 
8063 504 3 1.008 0.03 9.46512 15.195 6.63079 58.6475 64.3774 104.995 1 1 2 0.001958 0.0149944 -0.0284387 6.50394 -11.8769 -1.59066 
4957 310 3 1.008 0.03 15.1637 12.3792 0.591498 64.346 12.3792 0.591498 1 0 0 0.000418158 0.0133519 0.000169456 -12.4066 12.8463 2.86639 
4831 302 3 1.008 0.03 9.97299 15.3148 1.14693 157.52 -33.8675 -48.0354 3 -1 -1 -0.00895238 0.00215765 0.0270187 1.59979 -4.5863 1.45653 
8062 504 3 1.008 0.03 9.46363 13.4548 6.97441 58.646 62.6372 105.339 1 1 2 -0.0206883 0.00995103 -0.0153171 3.75464 -2.42645 9.07328 
4958 310 3 1.008 0.03 20.1223 15.3905 0.491779 69.3047 15.3905 0.491779 1 0 0 0.00729102 0.0236841 0.00723163 -2.42697 8.29625 16.9745 
318 20 3 1.008 0.03 21.4506 11.8208 7.19386 -27.7317 -135.726 105.559 -1 -3 2 2.33249e-06 0.00222954 0.00403209 8.86197 -3.99251 -9.50879 
8624 539 3 1.008 0.03 23.7058 13.7389 0.900835 122.071 13.7389 0.900835 2 0 0 0.00852808 0.00289723 0.00328079 8.01156 2.60299 9.82666 
7807 488 3 1.008 0.03 17.9104 10.6149 1.08237 67.0928 10.6149 1.08237 1 0 0 -0.00183607 0.00750535 -0.0111995 -1.65667 4.87175 17.7594 
7801 488 3 1.008 0.03 19.9953 13.0257 1.62069 69.1777 13.0257 1.62069 1 0 0 -0.0167356 -0.0182401 -0.0258844 -15.1427 -17.3583 25.6251 
9826 616 6 16 -0.53 17.155 15.9599 3.65312 66.3373 15.9599 3.65312 1 0 0 -0.0051339 0.00341571 -0.000619888 -13.2741 16.643 4.95386 
10153 638 8 19 -0.16 16.9883 13.5711 7.29205 16.9883 13.5711 56.4744 0 0 1 -0.00399727 -0.000796126 0.00806168 -2.01508 7.9701 4.72388 
4950 310 2 12.01 0.11 19.5609 15.7835 1.37564 68.7433 15.7835 1.37564 1 0 0 -0.00176625 0.00141131 -0.00430279 6.7508 3.4299 -45.3428 
5724 358 3 1.008 0.03 24.0065 14.8143 5.11869 24.0065 113.179 -44.0637 0 2 -1 -0.00640967 -0.0124337 -0.0189818 -11.2477 5.06354 1.30461 
10454 665 9 24.305 2 17.4197 14.0533 2.84046 66.6021 14.0533 2.84046 1 0 0 -0.00117727 -0.000820507 0.00343506 11.7038 18.8525 3.83126 
10154 638 8 19 -0.16 17.675 11.6588 6.64406 17.675 11.6588 55.8264 0 0 1 0.00267214 -0.00226945 -0.000230431 -30.4651 17.409 -7.46489 
5723 358 3 1.008 0.03 23.839 14.2348 6.73165 23.839 112.599 -42.4507 0 2 -1 -0.0215236 0.0127147 -0.0106241 15.5265 1.731 0.271861 