ITEM: TIMESTEP
3350000
ITEM: NUMBER OF ATOMS
10479
ITEM: BOX BOUNDS pp pp pp
4.0882558190751794e-01 4.9591174418091420e+01
4.0882558190751794e-01 4.9591174418091420e+01
4.0882558190751794e-01 4.9591174418091420e+01
ITEM: ATOMS id mol type mass q x y z xu yu zu ix iy iz vx vy vz fx fy fz 
7927 496 3 1.008 0.03 4.16821 6.09298 3.67538 4.16821 6.09298 52.8577 0 0 1 0.00785071 0.0313503 0.0275663 -9.88284 -28.7141 0.915355 
7929 496 3 1.008 0.03 3.21639 6.17153 1.73749 3.21639 6.17153 50.9198 0 0 1 -0.0222505 -0.0207432 0.0154058 -1.1942 -4.89697 -4.8016 
7923 496 2 12.01 0.14 3.35672 5.30636 3.60895 3.35672 5.30636 52.7913 0 0 1 0.00434258 -0.000589798 -0.00451189 1.34067 45.2079 27.902 
8370 524 1 16 -0.4 3.56251 1.42289 3.70389 101.927 99.7876 -45.4785 2 2 -1 -0.00617776 0.000561935 -0.00192958 -22.7458 -7.41986 -1.76088 
8371 524 2 12.01 0.14 5.9218 1.89981 3.94346 104.286 100.265 -45.2389 2 2 -1 -0.00165712 0.00535703 -0.000898263 78.1522 -9.05024 -24.9377 
7922 496 1 16 -0.4 1.45846 6.62665 2.88088 1.45846 6.62665 52.0632 0 0 1 0.000948187 -0.00292075 0.00157918 31.2498 5.24427 -16.2415 
7924 496 2 12.01 0.14 2.53304 5.72953 2.46622 2.53304 5.72953 51.6486 0 0 1 0.00493926 0.00181855 8.04244e-05 -34.699 -0.367669 -10.4591 
8375 524 3 1.008 0.03 6.17674 1.97071 2.86382 104.541 100.335 -46.3185 2 2 -1 0.0119852 -0.0102798 0.0206035 -22.2319 -2.75705 11.5109 
7928 496 3 1.008 0.03 3.72498 4.2966 3.37268 3.72498 4.2966 52.555 0 0 1 -0.00495764 -0.00282591 0.00637252 3.83161 6.23218 4.19156 
7921 496 1 16 -0.4 2.51737 5.48873 4.80086 2.51737 5.48873 53.9832 0 0 1 0.00314577 -0.00338641 -0.00190241 12.4259 -7.13023 -31.4991 
10461 672 9 24.305 2 0.803321 6.71462 4.75549 0.803321 6.71462 53.9378 0 0 1 0.00305154 0.000635324 0.00217294 15.5061 -6.53035 -2.08851 
8372 524 2 12.01 0.14 4.76025 0.957634 4.30287 103.125 99.3223 -44.8795 2 2 -1 -0.00474156 0.00120716 -0.00997207 14.9261 25.7913 -35.1087 
8369 524 1 16 -0.4 5.8026 3.24353 4.41073 104.167 101.608 -44.7716 2 2 -1 0.000896746 0.00827915 0.00164332 -22.5494 9.78897 24.2163 
8373 524 2 12.01 0.11 6.87919 4.19153 4.40279 105.244 102.556 -44.7796 2 2 -1 0.000391383 0.000518863 0.00343659 -10.308 -47.5098 0.0346348 
8381 524 3 1.008 0.03 7.21194 4.23011 3.3805 105.577 102.595 -45.8018 2 2 -1 -0.0155137 0.00351461 0.0107612 6.26448 13.9845 -3.32049 
7930 496 3 1.008 0.03 2.04305 4.82841 2.05912 2.04305 4.82841 51.2415 0 0 1 -0.00990819 0.00747792 0.0157263 6.86411 8.55496 -4.93631 
8374 524 2 12.01 0.11 2.48459 0.47665 3.89769 100.849 98.8413 -45.2847 2 2 -1 0.00359431 0.00201783 0.00360194 29.2486 -4.46709 11.0055 
7936 496 3 1.008 0.03 0.716104 6.68002 1.09075 0.716104 6.68002 50.2731 0 0 1 0.0153879 -0.00919697 0.00855952 -12.5099 -13.5743 -28.5653 
8376 524 3 1.008 0.03 6.91783 1.37923 4.19718 105.283 99.7439 -44.9852 2 2 -1 -1.08127e-06 -0.0232594 0.00565854 -41.9416 27.4255 7.8982 
8379 524 3 1.008 0.03 6.51153 5.12575 4.82352 104.876 103.49 -44.3588 2 2 -1 0.0148873 -0.00443102 -0.000924396 5.10978 5.51442 -4.85004 
7932 496 3 1.008 0.03 3.47883 3.77936 5.34759 3.47883 3.77936 54.5299 0 0 1 -0.00103229 0.00390753 -0.0121451 -5.6235 -6.85801 17.5612 
8380 524 3 1.008 0.03 7.67064 3.76467 5.01983 106.035 102.129 -44.1625 2 2 -1 0.00608296 0.0468502 -0.00321551 2.87738 6.18199 -0.603204 
10119 636 6 16 -0.53 6.09506 8.30045 6.51091 6.09506 8.30045 55.6933 0 0 1 0.00187916 -0.00556619 -0.00575106 -11.6928 3.40116 16.6912 
7925 496 2 12.01 0.11 3.2011 4.74931 5.77267 3.2011 4.74931 54.955 0 0 1 0.00780735 0.000755878 -0.000304235 -0.294534 -0.212424 -6.74313 
7933 496 3 1.008 0.03 4.12289 5.25446 6.05242 4.12289 5.25446 55.2348 0 0 1 0.00612051 -0.000216878 0.00604053 -0.0368996 1.94717 8.26905 
7931 496 3 1.008 0.03 2.48872 4.65651 6.57452 2.48872 4.65651 55.7569 0 0 1 0.0127895 -0.0233826 -0.0056276 7.09767 -5.22226 11.6162 
8382 524 3 1.008 0.03 1.51344 0.716721 3.50299 99.8781 99.0814 -45.6794 2 2 -1 0.0054916 0.0171931 0.0227006 -5.28096 11.1447 -7.4968 
4366 273 3 1.008 0.03 6.42455 5.32843 1.3126 55.6069 5.32843 198.042 1 0 4 -0.00755026 0.0109487 -0.0330209 3.91466 11.4933 2.83301 
4359 273 3 1.008 0.03 5.25263 1.84644 0.664854 54.435 1.84644 197.394 1 0 4 -0.0432901 -0.0151831 0.0250435 -18.5982 -1.26177 12.3119 
5067 317 3 1.008 0.03 6.0279 3.19998 7.09329 6.0279 101.565 7.09329 0 2 0 -0.00688075 0.0151142 0.000247435 15.4224 15.0321 14.874 
7926 496 2 12.01 0.11 1.14459 7.40142 1.71477 1.14459 7.40142 50.8971 0 0 1 0.0031992 0.00155126 0.00415146 -13.0677 -24.8272 40.6451 
10120 636 6 16 -0.53 6.70153 8.24784 4.19168 6.70153 8.24784 53.374 0 0 1 -6.82288e-05 0.00457618 -0.00710868 40.0617 -0.554979 -26.9247 
4354 273 1 16 -0.4 7.25341 3.5087 1.11506 56.4358 3.5087 197.844 1 0 4 0.00112265 0.0042993 -0.00371345 -13.7307 -24.4224 -8.46766 
4361 273 3 1.008 0.03 7.79869 1.61247 0.659246 56.981 1.61247 197.389 1 0 4 -0.00992884 -0.00711377 -0.0172969 17.8293 -4.81238 12.0014 
872 55 3 1.008 0.03 7.76209 8.20586 1.74998 -41.4203 8.20586 1.74998 -1 0 0 -0.0194756 -0.00530739 -0.02375 -8.75188 -16.2506 -0.575017 
8378 524 3 1.008 0.03 4.67756 0.837005 5.34624 103.042 99.2017 -43.8361 2 2 -1 0.0326151 -0.0024352 -0.0090292 -2.36824 -5.66678 24.8659 
9587 600 6 16 -0.53 0.92638 2.77043 7.2268 -48.256 2.77043 7.2268 -1 0 0 -0.00177886 0.0031201 -0.000415093 0.765294 -5.70125 8.68212 
867 55 2 12.01 0.14 8.35906 8.58158 0.939253 -40.8233 8.58158 0.939253 -1 0 0 0.000142288 0.00247595 -0.00252685 27.6283 -11.0588 -24.1239 
973 61 3 1.008 0.03 0.872179 3.3758 4.64678 0.872179 3.3758 53.8291 0 0 1 0.0139145 0.00178562 -0.0153924 15.4325 2.35189 -3.26475 
2249 141 3 1.008 0.03 2.01084 6.69494 7.38921 2.01084 6.69494 56.5716 0 0 1 -0.0185368 0.000983578 -0.00245361 19.8375 6.61263 -13.0227 
7935 496 3 1.008 0.03 1.9911 7.82178 1.23334 1.9911 7.82178 50.4157 0 0 1 -0.00908956 0.00798334 -0.000460047 11.7874 19.9411 -8.88384 
10127 636 6 16 -0.53 2.03658 8.30619 4.89069 2.03658 8.30619 54.073 0 0 1 -0.00224252 -0.00128625 -0.00114249 -13.8771 -11.2342 1.30863 
4368 273 3 1.008 0.03 5.31202 4.20197 0.705666 54.4944 4.20197 197.435 1 0 4 -0.00949893 -0.0160646 -0.0111565 -10.2496 -8.38788 -5.21708 
4358 273 2 12.01 0.11 6.34911 4.47483 0.66555 55.5315 4.47483 197.395 1 0 4 -0.00709898 -0.000474749 0.0120332 5.06133 2.21076 36.2543 
2681 168 3 1.008 0.03 16.7307 6.38118 0.651314 -81.634 6.38118 49.8337 -2 0 1 0.000186922 0.0196016 -0.00183155 -12.464 18.179 -31.8519 
8831 552 3 1.008 0.03 8.91574 1.15609 5.96871 8.91574 99.5208 104.333 0 2 2 0.00211566 -0.0220865 0.0241294 1.71924 -5.72703 -8.6415 
314 20 3 1.008 0.03 15.763 1.03936 2.71756 -33.4193 -146.508 101.082 -1 -3 2 -0.00395515 0.00340189 -0.0138551 -1.47222 -10.4002 21.516 
869 55 2 12.01 0.11 9.47433 6.51568 0.641992 -39.708 6.51568 0.641992 -1 0 0 -0.00538765 -0.00162512 0.00670044 4.08296 34.2496 5.18595 
318 20 3 1.008 0.03 14.0151 4.25721 3.04772 -35.1672 -143.29 101.412 -1 -3 2 0.00858878 -0.0189877 -0.00275558 -1.31923 -30.2233 7.08568 
308 20 2 12.01 0.14 15.5507 1.58083 1.84167 -33.6317 -145.966 100.206 -1 -3 2 -0.0066766 -0.00151349 -0.000684914 2.82704 4.57465 -26.1412 
306 20 1 16 -0.4 15.1583 2.91897 2.07179 -34.0241 -144.628 100.436 -1 -3 2 -0.00781489 0.00276335 -0.00172408 17.5186 4.54174 -26.8726 
430 27 3 1.008 0.03 16.1258 0.804093 4.80509 16.1258 49.9864 53.9874 0 1 1 -0.00934358 -0.0181501 -0.00777628 -9.54785 -18.5663 -0.0999589 
319 20 3 1.008 0.03 13.2319 2.62926 2.83128 -35.9504 -144.918 101.196 -1 -3 2 -0.0218683 -0.022948 -0.0160569 -15.0535 -5.61977 -15.3478 
320 20 3 1.008 0.03 14.4773 2.63186 3.95051 -34.7051 -144.915 102.315 -1 -3 2 -0.00899615 0.0212597 0.00373603 -8.5991 28.5718 -22.0614 
2427 152 3 1.008 0.03 13.4869 7.70786 3.74548 -134.06 56.8902 102.11 -3 1 2 -0.00462088 0.0182449 -0.0116098 14.9829 -2.21027 -5.57889 
310 20 2 12.01 0.11 14.1523 3.13419 2.98269 -35.0301 -144.413 101.347 -1 -3 2 -0.000771398 0.00319636 -0.0104986 10.413 6.32042 56.8052 
2421 152 2 12.01 0.11 14.381 8.14157 3.25042 -133.166 57.3239 101.615 -3 1 2 -0.0061374 -0.000311975 0.00575228 -10.4159 14.9261 16.6846 
2428 152 3 1.008 0.03 14.8408 7.43668 2.56077 -132.706 56.619 100.925 -3 1 2 0.008848 -0.021514 -0.00526427 -2.92228 -1.03893 -3.5502 
865 55 1 16 -0.4 9.66095 7.91703 0.829396 -39.5214 7.91703 0.829396 -1 0 0 -0.00184072 -0.0020803 0.000517285 -38.6271 -6.94461 -16.9107 
2429 152 3 1.008 0.03 15.1094 8.40912 4.03234 -132.438 57.5915 102.397 -3 1 2 0.0220505 -0.00672453 0.0165755 -3.60877 -5.29338 -5.64544 
422 27 2 12.01 0.11 16.6243 1.56054 5.35396 16.6243 50.7429 54.5363 0 1 1 -0.000108225 0.00738158 0.00191312 23.4597 13.4029 -46.5217 
875 55 3 1.008 0.03 9.41772 6.22567 1.66062 -39.7646 6.22567 1.66062 -1 0 0 0.0101888 -0.0216275 -0.0195616 -14.0025 -20.107 14.8754 
431 27 3 1.008 0.03 16.5787 2.36677 4.57282 16.5787 51.5491 53.7552 0 1 1 0.00119957 -0.0164949 -0.0115067 10.1911 -6.98547 25.6183 
8558 535 3 1.008 0.03 10.3458 2.3709 1.02742 59.5282 100.736 99.3921 1 2 2 -0.00197311 -0.026056 0.0128937 -11.9928 -34.2654 -4.05468 
8559 535 3 1.008 0.03 11.7661 3.22892 1.44652 60.9484 101.594 99.8112 1 2 2 -0.00720695 -0.0125496 -0.00872788 27.6468 -3.98429 15.3068 
418 27 1 16 -0.4 15.9057 1.80767 6.50171 15.9057 50.99 55.6841 0 1 1 0.00108798 -0.00632221 -0.00202435 -19.6802 -17.9669 9.72377 
8550 535 2 12.01 0.11 11.0556 3.06852 0.702447 60.2379 101.433 99.0671 1 2 2 -0.00888407 0.000558441 0.00853968 -12.8635 36.3901 -0.935514 
8560 535 3 1.008 0.03 10.4917 3.95989 0.875376 59.6741 102.325 99.2401 1 2 2 0.0149547 -0.00611244 0.0234588 -8.22881 10.2626 -8.44563 
8106 507 3 1.008 0.03 16.0263 8.07991 6.65651 65.2086 8.07991 105.021 1 0 2 -0.0170067 0.0117365 -0.000565863 -12.1828 -0.546397 12.7101 
425 27 3 1.008 0.03 16.2909 3.73545 6.6471 16.2909 52.9178 55.8295 0 1 1 0.000546767 -0.0186134 -0.0422491 -7.53398 7.12774 11.5953 
313 20 3 1.008 0.03 14.7772 1.01648 1.29 -34.4052 -146.531 99.6547 -1 -3 2 -0.00156797 0.0208704 -0.00272036 3.59316 8.23067 5.51934 
8830 552 3 1.008 0.03 8.899 0.609693 4.26794 8.899 98.9744 102.633 0 2 2 0.0145635 0.0338075 -0.00882746 18.3298 0.367 13.3526 
8105 507 3 1.008 0.03 14.3542 8.48975 7.20612 63.5365 8.48975 105.571 1 0 2 0.0146534 0.00106269 -0.00878543 -15.3088 -0.621473 -19.9702 
420 27 2 12.01 0.14 16.3635 2.85085 7.28334 16.3635 52.0332 56.4657 0 1 1 -0.003555 -0.00596004 -0.00732308 7.15844 2.59039 -15.8918 
8822 552 2 12.01 0.11 9.38132 0.445446 5.26218 9.38132 98.8101 103.627 0 2 2 -0.0101288 0.00512297 0.00696902 -61.7046 -16.1262 5.16897 
8832 552 3 1.008 0.03 10.401 0.75494 5.28082 10.401 99.1196 103.646 0 2 2 0.00505643 0.0236631 -0.00151031 20.2652 -9.67366 -4.84709 
4681 293 3 1.008 0.03 20.5561 8.36274 0.412643 -28.6263 57.5451 49.595 -1 1 1 0.00335684 0.0174072 0.0166687 1.53354 3.64541 17.4888 
317 20 3 1.008 0.03 19.2732 3.02173 2.43476 -29.9091 -144.525 100.799 -1 -3 2 -0.0137276 -0.0233494 -0.00656766 40.0682 8.61328 31.1024 
305 20 1 16 -0.4 18.0655 1.67812 1.86204 -31.1168 -145.869 100.227 -1 -3 2 0.00118238 0.00588654 -0.001258 -35.794 6.82023 -37.0206 
10287 647 8 19 -0.16 24.167 6.88307 3.49511 24.167 56.0654 3.49511 0 1 0 -0.00175189 0.00681377 -0.00527873 16.5673 21.8921 14.5985 
432 27 3 1.008 0.03 17.6406 1.15806 5.48943 17.6406 50.3404 54.6718 0 1 1 -0.0207637 0.00334767 0.00264044 -4.71961 9.57428 4.48614 
316 20 3 1.008 0.03 17.7604 3.68962 2.0821 -31.4219 -143.857 100.447 -1 -3 2 0.0153934 0.0142047 0.00728712 9.54722 0.373997 -11.1298 
10296 647 8 19 -0.16 21.13 1.36442 5.30461 21.13 50.5468 5.30461 0 1 0 -0.00594359 0.000850282 0.00752791 -21.6948 -24.6012 23.9998 
307 20 2 12.01 0.14 16.8623 1.59614 1.02461 -32.32 -145.951 99.3893 -1 -3 2 0.00413107 0.00628254 -0.000937324 0.692637 -24.5099 26.0096 
10293 647 7 12.01 0.35 21.5713 2.44238 4.77041 21.5713 51.6247 4.77041 0 1 0 0.00153186 -0.00425747 -0.0023033 13.7993 19.9923 -15.3337 
10294 647 8 19 -0.16 22.2553 3.06941 5.69287 22.2553 52.2518 5.69287 0 1 0 -0.00167656 -0.00295397 -0.00248039 7.53514 2.31218 10.8813 
10290 647 5 32.06 1.02 22.585 1.96569 3.34345 22.585 51.148 3.34345 0 1 0 -0.000121283 0.00222154 0.0044697 26.7344 -22.9759 13.1521 
10282 647 4 14.01 -0.66 23.0794 3.34024 2.78688 23.0794 52.5226 2.78688 0 1 0 0.00114546 0.00274675 0.0032521 -38.4694 -8.74983 -30.426 
315 20 3 1.008 0.03 18.9887 3.23312 0.779295 -30.1937 -144.314 99.144 -1 -3 2 -0.000458648 0.00348189 0.00541703 -1.73348 3.23097 -10.9971 
10288 647 8 19 -0.16 22.3038 5.91145 3.83247 22.3038 55.0938 3.83247 0 1 0 -0.00824653 -0.00108053 -0.000945741 -1.71063 11.3567 8.73999 
10295 647 8 19 -0.16 20.5508 3.22222 4.49728 20.5508 52.4046 4.49728 0 1 0 -0.00316371 -0.000796912 0.000143733 -9.13163 0.803375 -7.99429 
10286 647 7 12.01 0.35 23.4088 5.91072 3.11375 23.4088 55.0931 3.11375 0 1 0 -0.00622149 -0.00141212 9.20964e-05 -32.0663 -28.7196 -6.18983 
10283 647 5 32.06 1.02 24.1909 4.27135 3.26451 24.1909 53.4537 3.26451 0 1 0 0.00142274 -0.00546013 -0.00157753 6.16962 -10.5859 34.1077 
468 30 2 12.01 0.14 23.0428 7.24393 6.8269 72.2252 56.4263 56.0092 1 1 1 -0.00134781 -0.000708704 -0.000959407 11.0178 51.2908 -7.24731 
309 20 2 12.01 0.11 18.5439 2.99251 1.72974 -30.6384 -144.555 100.094 -1 -3 2 -0.00622857 -0.00143769 -0.00258963 -37.4414 -4.89232 7.86237 
480 30 3 1.008 0.03 24.6461 5.25338 7.20716 73.8284 54.4357 56.3895 1 1 1 0.00675326 -0.00397769 0.00687814 7.03226 -3.48747 -5.37207 
6531 409 2 12.01 0.14 18.8577 7.95855 5.16471 117.222 7.95855 54.3471 2 0 1 -0.00136971 -0.00494374 0.006475 15.6696 7.56992 35.4154 
6535 409 3 1.008 0.03 18.4438 7.76269 6.21228 116.809 7.76269 55.3946 2 0 1 -0.0262666 -0.0131011 0.00121577 13.3689 14.8936 -29.8482 
10291 647 6 16 -0.53 23.6503 1.16581 3.96082 23.6503 50.3482 3.96082 0 1 0 0.00195944 -0.00413547 0.00490866 -7.9922 5.95663 -6.31342 
10292 647 6 16 -0.53 21.6613 1.20239 2.53965 21.6613 50.3847 2.53965 0 1 0 0.00491912 0.00781273 0.00811323 2.91947 14.5311 -7.81521 
10289 647 8 19 -0.16 23.0076 6.20008 1.88849 23.0076 55.3824 1.88849 0 1 0 -0.00522385 -0.00278164 -0.00492195 4.73482 -3.02597 -5.24255 
6533 409 2 12.01 0.11 18.9592 5.71637 5.0663 117.324 5.71637 54.2486 2 0 1 0.00445876 -0.00333474 0.00421867 -37.3154 -20.5864 51.7325 
6541 409 3 1.008 0.03 18.4214 5.57183 6.10984 116.786 5.57183 55.2922 2 0 1 -0.00978483 -0.0305073 0.00796762 34.1162 13.4271 -51.3687 
472 30 3 1.008 0.03 21.4964 8.60508 6.3862 70.6787 57.7874 55.5686 1 1 1 -0.0196972 -0.00528795 0.00227227 -8.66611 17.3349 6.11 
6539 409 3 1.008 0.03 18.5939 4.82473 4.58481 116.959 4.82473 53.7672 2 0 1 0.00253322 -0.0113833 0.0176951 4.15808 -5.46043 -12.9402 
474 30 3 1.008 0.03 23.1754 6.6559 5.90567 72.3577 55.8382 55.088 1 1 1 0.0054627 0.018372 0.0201067 -3.98582 12.2664 0.759647 
6529 409 1 16 -0.4 18.4689 6.86761 4.37509 116.834 6.86761 53.5574 2 0 1 -0.00629169 0.00120262 0.00217931 1.53735 -4.25199 4.83615 
6540 409 3 1.008 0.03 20.0612 5.65238 5.17335 118.426 5.65238 54.3557 2 0 1 -0.00471084 0.010646 -0.0131619 -11.8169 1.91441 -2.37508 
10284 647 6 16 -0.53 24.4355 4.05047 4.69208 24.4355 53.2328 4.69208 0 1 0 -0.00455245 0.00668065 -0.0015844 15.3981 23.3718 -27.9389 
312 20 3 1.008 0.03 16.8629 0.613641 0.603772 -32.3195 -146.933 98.9685 -1 -3 2 -0.0132632 0.0114617 -0.00944189 7.92836 -14.45 -3.62515 
476 30 3 1.008 0.03 22.054 8.44771 4.16122 71.2363 57.6301 53.3436 1 1 1 -0.0263264 0.0141746 0.000103443 15.5863 16.4415 0.0468416 
6536 409 3 1.008 0.03 19.9701 7.90996 5.21205 118.335 7.90996 54.3944 2 0 1 -0.00949982 0.0147783 -0.00874966 -20.5345 3.02283 1.52934 
2680 168 3 1.008 0.03 17.6423 8.49108 0.438548 -80.7224 8.49108 49.6209 -2 0 1 0.0133647 -0.0276009 -0.00722018 2.85736 24.0759 17.8763 
2019 127 2 12.01 0.14 24.7533 0.667199 7.28974 -24.4291 49.8495 7.28974 -1 1 0 -0.00299732 -0.00532972 0.00261804 26.4295 6.54538 -9.65107 
473 30 3 1.008 0.03 22.2694 6.77631 7.34839 71.4517 55.9587 56.5307 1 1 1 0.000407056 0.00111905 0.0143769 -14.3345 -17.4167 20.2873 
6781 424 3 1.008 0.03 3.72134 11.3846 0.824624 52.9037 11.3846 0.824624 1 0 0 -0.020148 -0.00463228 0.00814933 1.03741 10.4038 18.4779 
9138 572 1 16 -0.4 1.07613 15.4724 6.4286 99.4408 64.6547 6.4286 2 1 0 -0.0117111 0.000381278 -0.000882642 2.2736 2.48745 -4.04013 
8765 548 3 1.008 0.03 3.76281 14.8158 0.911817 3.76281 -34.3666 -48.2705 0 -1 -1 -0.00404057 0.00817386 0.00365136 -10.5222 -31.6351 9.21638 
9139 572 2 12.01 0.14 3.09743 15.4054 5.00716 101.462 64.5878 5.00716 2 1 0 -0.00307076 -0.00363862 0.00728201 -22.4009 -8.96224 -15.965 
10117 636 4 14.01 -0.66 4.44965 8.88341 4.56074 4.44965 8.88341 53.7431 0 0 1 0.00525491 -0.00327239 0.00153146 -18.2588 -5.56858 25.6795 
10125 636 5 32.06 1.02 3.10767 9.1706 5.32517 3.10767 9.1706 54.5075 0 0 1 0.000969012 -0.00197727 0.0017403 25.1627 33.1289 4.80597 
10122 636 8 19 -0.16 6.22922 11.2455 3.99586 6.22922 11.2455 53.1782 0 0 1 0.000167113 -0.00422163 -0.000694379 -7.53501 -28.6578 38.5531 
10118 636 5 32.06 1.02 5.88725 8.81995 5.19109 5.88725 8.81995 54.3734 0 0 1 0.000805822 0.00107353 0.000955557 -20.6385 9.88047 -21.7115 
8302 519 3 1.008 0.03 7.91428 16.6903 2.84752 7.91428 -32.4921 52.0299 0 -1 1 6.95963e-05 -0.00993946 0.0169381 2.57033 9.90931 -11.3565 
10128 636 7 12.01 0.35 2.65562 10.8803 4.69772 2.65562 10.8803 53.8801 0 0 1 -0.00125313 -0.000922453 0.00405225 33.8534 -17.3671 -16.0336 
10130 636 8 19 -0.16 2.76632 10.9029 3.35759 2.76632 10.9029 52.5399 0 0 1 0.00238525 -0.00129102 0.000116334 -18.8422 2.78398 16.4256 
10129 636 8 19 -0.16 3.49914 11.8239 5.1053 3.49914 11.8239 54.2877 0 0 1 -0.00171253 0.000198116 0.00381083 -13.3226 -3.29482 0.188533 
10121 636 7 12.01 0.35 6.20478 10.6447 5.23613 6.20478 10.6447 54.4185 0 0 1 0.00579365 -0.00812927 -0.000244723 8.79562 24.2127 -42.5973 
8294 519 2 12.01 0.11 8.08925 15.8918 3.53678 8.08925 -33.2906 52.7191 0 -1 1 0.00161823 -0.00417138 0.00319855 -55.0067 22.1646 -12.1035 
8303 519 3 1.008 0.03 7.85148 15.0069 3.00587 7.85148 -34.1754 52.1882 0 -1 1 0.0119014 0.00494645 -0.0276393 3.67421 -22.9134 -7.01462 
8304 519 3 1.008 0.03 7.32258 16.0794 4.27744 7.32258 -33.103 53.4598 0 -1 1 0.0147505 0.00377027 0.00177716 -1.91714 -4.91347 8.14712 
10123 636 8 19 -0.16 7.36177 11.013 5.78009 7.36177 11.013 54.9624 0 0 1 -0.00429113 -0.0063675 0.00584643 -11.9962 -8.73854 8.5963 
9148 572 3 1.008 0.03 0.897013 14.1252 4.15536 99.2617 63.3076 4.15536 2 1 0 0.0218643 -0.000991704 -0.00265566 3.59253 0.925328 -5.59378 
8757 548 2 12.01 0.11 4.20531 15.7585 0.938564 4.20531 -33.4239 -48.2438 0 -1 -1 -0.00271481 -0.00292387 -0.00517374 35.943 20.7406 12.5043 
8764 548 3 1.008 0.03 3.45632 16.433 1.27502 3.45632 -32.7493 -47.9073 0 -1 -1 0.00194318 -0.0375297 0.0393778 -14.1628 13.5403 -1.91711 
9137 572 1 16 -0.4 2.50225 15.2834 3.6778 100.867 64.4657 3.6778 2 1 0 -0.00183681 -0.0022671 -0.00112478 36.3787 20.6305 11.7896 
9141 572 2 12.01 0.11 1.15044 15.012 3.55998 99.5151 64.1944 3.55998 2 1 0 0.0118277 0.0028312 -0.00607678 -7.56129 -43.1567 0.587945 
10124 636 8 19 -0.16 5.22033 11.2329 5.90636 5.22033 11.2329 55.0887 0 0 1 0.000684687 0.000844052 -0.00715364 20.3357 2.99659 5.55634 
10126 636 6 16 -0.53 3.25886 9.37143 6.73851 3.25886 9.37143 55.9209 0 0 1 0.00149653 -0.00504779 -0.00477273 -7.72536 -3.37624 4.58688 
6780 424 3 1.008 0.03 2.23535 10.3098 0.457944 51.4177 10.3098 0.457944 1 0 0 -0.0151807 -0.011448 -0.0205177 30.8028 11.3361 7.22794 
9144 572 3 1.008 0.03 4.07399 15.8641 4.8781 102.439 65.0464 4.8781 2 1 0 0.00795152 0.0285044 0.0117852 2.74447 -0.0397381 2.67534 
10131 636 8 19 -0.16 1.45082 11.2599 5.07868 1.45082 11.2599 54.261 0 0 1 -0.000235696 -0.00150194 -0.00615127 -4.99638 1.59418 -7.37348 
9143 572 3 1.008 0.03 3.24837 14.417 5.3946 101.613 63.5993 5.3946 2 1 0 -0.00234378 -0.00312188 0.0237575 4.88929 -11.7209 2.70354 
873 55 3 1.008 0.03 8.11014 10.3143 2.22003 -41.0722 10.3143 2.22003 -1 0 0 0.00123925 0.0273621 -0.00271557 -5.79526 5.48873 2.97747 
9147 572 3 1.008 0.03 0.914387 14.7794 2.50653 99.2791 63.9617 2.50653 2 1 0 -0.015503 0.0135854 -0.0243469 -1.88466 9.95483 10.2599 
8763 548 3 1.008 0.03 5.03632 15.8297 1.6794 5.03632 -33.3527 -47.5029 0 -1 -1 -6.83445e-05 -0.00436238 0.016303 -10.8287 -7.86834 -12.3693 
9140 572 2 12.01 0.14 2.26645 16.1711 6.04992 100.631 65.3535 6.04992 2 1 0 -0.00182595 0.000402028 -0.00113081 -3.60698 -1.59659 25.3448 
9145 572 3 1.008 0.03 2.77278 16.2848 7.03428 101.137 65.4671 7.03428 2 1 0 -0.00241383 0.000632552 -0.00395364 4.28823 1.05464 -18.9781 
5852 366 3 1.008 0.03 6.79432 14.9094 7.03126 6.79432 14.9094 -42.1511 0 0 -1 -0.0129495 0.0222302 -0.0261802 -4.79603 -4.03544 4.86584 
2206 138 3 1.008 0.03 0.65591 12.7237 1.83701 49.8383 61.906 -96.5277 1 1 -2 -0.0343908 0.0128942 0.0039713 6.5532 -7.02432 -20.9575 
9149 572 3 1.008 0.03 0.536299 15.7625 3.9683 98.901 64.9448 3.9683 2 1 0 0.00567996 0.0363539 -0.019906 -9.67574 17.1807 3.82553 
5847 366 3 1.008 0.03 8.23335 12.8233 7.39506 8.23335 12.8233 -41.7873 0 0 -1 -0.000394623 -0.0127927 0.00271194 -8.22544 -1.91661 -9.40613 
880 55 3 1.008 0.03 9.31411 12.6655 0.980787 -39.8682 12.6655 0.980787 -1 0 0 -0.0200651 -0.0177723 0.0255123 0.395033 -23.4467 -6.47156 
5273 330 3 1.008 0.03 12.8372 13.865 1.36803 62.0195 -35.3174 -47.8143 1 -1 -1 0.00227257 0.00584979 -0.00655154 -4.43509 4.05948 -1.09556 
2424 152 3 1.008 0.03 14.8624 9.30024 0.841039 -132.685 58.4826 99.2057 -3 1 2 0.00489657 -0.0278625 0.0219141 -10.7688 19.2111 16.4737 
2417 152 1 16 -0.4 13.9083 9.35075 2.66744 -133.639 58.5331 101.032 -3 1 2 -0.0041016 -0.00240186 -0.00470655 12.3442 -0.476228 -8.19552 
2419 152 2 12.01 0.14 14.8242 9.95905 1.74049 -132.723 59.1414 100.105 -3 1 2 -0.00810228 0.00188195 0.00456312 27.9066 -30.327 -21.8273 
3377 212 1 16 -0.4 10.7931 11.837 5.80622 10.7931 -135.71 -43.3761 0 -3 -1 0.00131254 -0.000332302 -0.00028901 2.33785 49.6801 -12.7819 
2426 152 3 1.008 0.03 13.316 11.3058 1.00631 -134.231 60.4881 99.371 -3 1 2 -0.00950017 -0.010411 0.00454048 15.213 4.92403 3.61513 
868 55 2 12.01 0.14 8.71008 9.96298 1.39289 -40.4723 9.96298 1.39289 -1 0 0 0.00408903 0.000192574 -0.00587688 4.4886 -1.06227 -4.44639 
8290 519 1 16 -0.4 9.31399 16.0279 4.04902 9.31399 -33.1545 53.2314 0 -1 1 -0.00667054 0.00415859 -0.00442732 52.8594 -14.0049 32.3156 
2425 152 3 1.008 0.03 14.9944 11.6736 0.492665 -132.553 60.856 98.8574 -3 1 2 0.00376019 0.0317741 -0.0333826 -2.02914 -4.43088 -10.6415 
2420 152 2 12.01 0.14 14.3845 11.3349 1.32033 -133.162 60.5173 99.685 -3 1 2 0.00340789 -0.00135332 -0.00597655 -21.9417 23.5889 3.26129 
2423 152 3 1.008 0.03 15.9116 10.0125 1.95863 -131.635 59.1948 100.323 -3 1 2 0.00136262 0.0118851 0.00050377 -16.4941 -4.00452 16.8678 
2418 152 1 16 -0.4 14.6582 12.3629 2.28575 -132.889 61.5453 100.65 -3 1 2 0.00160815 -0.00907791 0.00327349 -14.0684 -8.2421 26.1336 
2422 152 2 12.01 0.11 13.934 12.1904 3.5433 -133.613 61.3728 101.908 -3 1 2 -0.00826868 -0.00220934 0.00179371 23.4076 45.9763 5.86506 
3388 212 3 1.008 0.03 10.004 11.344 3.93619 10.004 -136.203 -45.2462 0 -3 -1 0.0258776 -0.00558869 -0.0092069 1.54652 -0.823333 11.5481 
3381 212 2 12.01 0.11 10.241 10.923 4.93135 10.241 -136.624 -44.251 0 -3 -1 -0.0034471 -0.00364813 0.00496946 -58.6932 -25.4998 0.851473 
8298 519 3 1.008 0.03 8.7356 14.4093 5.26525 8.7356 -34.773 54.4476 0 -1 1 -0.0248359 -0.00329905 0.00870996 2.98884 -1.88428 4.09149 
5272 330 3 1.008 0.03 13.6666 14.9587 3.26862 62.849 -34.2236 -45.9137 1 -1 -1 0.00177676 0.00966963 -0.0227632 0.73114 -7.61617 14.7934 
5274 330 3 1.008 0.03 11.8595 15.3849 1.25355 61.0418 -33.7974 -47.9288 1 -1 -1 -0.00112115 0.0137058 -0.000718524 54.5516 -16.4042 -1.67863 
5267 330 2 12.01 0.14 13.9074 15.4225 2.34017 63.0897 -33.7598 -46.8422 1 -1 -1 -0.00296816 -0.00723374 -0.00903485 -14.8306 52.9385 -39.8803 
6336 396 3 1.008 0.03 15.9615 13.3261 5.72035 -131.586 160.873 -43.462 -3 3 -1 0.0119915 0.0145103 -0.0248671 -3.24922 6.64361 10.1732 
3389 212 3 1.008 0.03 10.9039 10.1169 4.80315 10.9039 -137.43 -44.3792 0 -3 -1 -0.0184279 0.00869617 0.00912301 18.5598 -18.9918 -11.24 
2432 152 3 1.008 0.03 14.0821 12.9987 4.35344 -133.465 62.1811 102.718 -3 1 2 0.0102818 -0.0113454 0.00497615 2.6483 -26.9389 -36.7975 
5268 330 2 12.01 0.14 12.9471 14.9438 1.22693 62.1294 -34.2385 -47.9554 1 -1 -1 -0.0016139 0.00319657 0.00262672 -29.5122 15.7683 -5.9367 
2431 152 3 1.008 0.03 14.2746 11.2829 3.99765 -133.272 60.4652 102.362 -3 1 2 0.00795423 0.0271705 0.0326811 -5.49595 -11.1994 9.40178 
2430 152 3 1.008 0.03 12.8795 12.241 3.34487 -134.668 61.4234 101.71 -3 1 2 0.0249905 0.00364698 -0.0260366 -11.961 -11.1283 -0.29786 
8292 519 2 12.01 0.14 9.63458 14.9602 4.97586 9.63458 -34.2221 54.1582 0 -1 1 -0.00286347 -0.00122836 0.0028872 -8.70605 18.6747 -24.5871 
8297 519 3 1.008 0.03 10.2723 14.2753 4.39551 10.2723 -34.907 53.5779 0 -1 1 0.0112869 -0.0180676 0.00239207 -1.3001 1.26203 10.6995 
8295 519 3 1.008 0.03 11.2225 16.0942 5.92033 11.2225 -33.0881 55.1027 0 -1 1 0.00639459 -0.0114025 0.00084886 4.02295 5.255 -6.11301 
8291 519 2 12.01 0.14 10.3261 15.5633 6.20622 10.3261 -33.619 55.3886 0 -1 1 -0.00174401 0.00676023 0.000610161 -19.2128 11.1741 -10.7433 
8296 519 3 1.008 0.03 10.6697 14.7338 6.76271 10.6697 -34.4486 55.9451 0 -1 1 -0.0304796 0.0123911 0.00899003 3.68804 -12.7538 19.1064 
5271 330 3 1.008 0.03 14.8823 15.1523 1.92261 64.0647 -34.03 -47.2597 1 -1 -1 -0.00154272 -0.0130847 0.000229807 5.59936 -0.613625 19.5223 
874 55 3 1.008 0.03 9.72993 9.90535 1.69669 -39.4524 9.90535 1.69669 -1 0 0 -0.00646825 0.0231783 -0.0174918 14.6973 6.01765 16.9674 
8289 519 1 16 -0.4 9.41935 16.4245 6.94794 9.41935 -32.7579 56.1303 0 -1 1 -0.00439177 -0.00230312 0.00856807 2.24837 -12.3521 -20.4284 
6329 396 3 1.008 0.03 16.509 14.8314 3.6974 -131.038 162.378 -45.4849 -3 3 -1 0.00133496 -0.00883069 -0.0223791 15.1037 -33.2586 5.39785 
3379 212 2 12.01 0.14 11.4927 11.2698 6.83917 11.4927 -136.277 -42.3432 0 -3 -1 0.00343455 0.000992254 -0.000367288 0.419198 -22.3709 61.4679 
6330 396 3 1.008 0.03 16.7859 13.0763 3.29835 -130.761 160.623 -45.884 -3 3 -1 0.0152399 0.0141753 -0.0241799 -0.766322 0.0159151 -10.6769 
4956 310 3 1.008 0.03 16.202 15.9882 6.85115 65.3843 15.9882 6.85115 1 0 0 -0.0210643 0.00485493 -0.000301387 -24.9682 -5.50634 -38.7902 
3387 212 3 1.008 0.03 9.30156 10.4294 5.3789 9.30156 -137.118 -43.8034 0 -3 -1 0.00371987 -0.00127189 -0.0222837 36.701 20.7613 -17.7004 
3384 212 3 1.008 0.03 12.3569 10.6924 6.57035 12.3569 -136.855 -42.612 0 -3 -1 0.0198839 -0.00858028 0.00104081 6.78877 -7.508 -10.1217 
8104 507 3 1.008 0.03 15.3598 10.5727 6.90396 64.5422 10.5727 105.269 1 0 2 0.00704904 -0.00860562 -0.00742247 -0.322102 -7.67694 16.7566 
3383 212 3 1.008 0.03 10.7664 10.5979 7.3304 10.7664 -136.949 -41.8519 0 -3 -1 0.0212972 -0.00786201 -0.0156261 6.6514 -4.82077 -14.1652 
6537 409 3 1.008 0.03 17.3482 9.43986 4.42793 115.713 9.43986 53.6103 2 0 1 -0.0120344 -0.0326438 -0.00545372 50.7915 -0.743447 15.1662 
6538 409 3 1.008 0.03 18.6751 10.0713 5.55602 117.04 10.0713 54.7384 2 0 1 0.0154838 -0.0183266 0.00591374 -3.20021 -8.70077 -13.609 
6532 409 2 12.01 0.14 18.4845 9.38813 4.69381 116.849 9.38813 53.8762 2 0 1 0.000225508 0.000793573 -0.00738263 -75.3279 -17.0426 21.1699 
6530 409 1 16 -0.4 19.1992 9.72731 3.57326 117.564 9.72731 52.7556 2 0 1 0.00986288 -0.00159941 0.00316083 23.3672 26.2161 -20.4556 
4684 293 3 1.008 0.03 22.2152 13.4741 0.666696 -26.9672 62.6565 49.849 -1 1 1 0.000542207 -0.0298109 -0.0042489 3.77991 10.2721 -5.02641 
467 30 2 12.01 0.14 22.5185 8.75966 6.68637 71.7008 57.942 55.8687 1 1 1 -0.000501534 0.00211298 -0.00701214 47.0496 -25.4604 -31.8001 
6334 396 3 1.008 0.03 16.8648 11.9488 5.44914 -130.682 159.496 -43.7332 -3 3 -1 0.00581733 -0.00653196 -0.00854596 5.49541 -30.2191 -2.21299 
6333 396 3 1.008 0.03 20.6159 15.6969 3.04182 -126.931 163.244 -46.1405 -3 3 -1 -0.0309926 0.0120674 -0.00826228 33.837 -9.09822 9.11916 
475 30 3 1.008 0.03 23.3278 9.56275 3.50524 72.5102 58.7451 52.6876 1 1 1 0.00741293 -0.0165014 0.0203232 9.0898 -3.97812 -0.990895 
4677 293 2 12.01 0.11 22.6809 12.5028 0.658664 -26.5014 61.6851 49.841 -1 1 1 0.00525955 0.00366688 -0.00105834 -17.8569 -22.6247 -6.61093 
6326 396 2 12.01 0.11 16.9683 12.9331 5.79405 -130.579 160.48 -43.3883 -3 3 -1 -0.00610614 -0.0068072 0.0071652 3.88682 37.8186 -19.7886 
4685 293 3 1.008 0.03 22.9666 12.3747 1.69454 -26.2157 61.5571 50.8769 -1 1 1 -0.0306329 0.00923745 0.00311469 4.87373 -7.3301 3.8055 
6335 396 3 1.008 0.03 17.3773 13.0302 6.7898 -130.17 160.577 -42.3925 -3 3 -1 -0.0259032 -0.0157616 -0.00483107 -4.17278 -11.2687 8.67771 
465 30 1 16 -0.4 23.2989 9.38328 5.62106 72.4812 58.5656 54.8034 1 1 1 -0.0018629 -0.00498405 0.00134987 -13.9979 -12.605 6.28401 
477 30 3 1.008 0.03 21.9803 10.2262 4.3248 71.1626 59.4085 53.5072 1 1 1 -0.00588496 0.00340657 0.00416098 -2.00708 -4.01817 0.0761758 
6542 409 3 1.008 0.03 19.9948 11.4979 2.63597 118.36 11.4979 51.8183 2 0 1 0.0138962 -0.0142442 0.00735962 -18.8368 -12.0247 17.2432 
6534 409 2 12.01 0.11 19.3571 11.1577 3.50503 117.722 11.1577 52.6874 2 0 1 -0.00045377 -1.00081e-05 -0.000867544 7.49656 4.63565 -20.0116 
6543 409 3 1.008 0.03 18.3841 11.6787 3.48441 116.749 11.6787 52.6668 2 0 1 0.00776064 -0.00517876 0.00344992 12.0875 -12.6511 -5.41712 
6544 409 3 1.008 0.03 19.8717 11.5328 4.38392 118.236 11.5328 53.5663 2 0 1 0.0160833 0.00449902 -0.000461678 2.45256 -0.118829 3.00769 
469 30 2 12.01 0.11 22.6634 9.37412 4.3376 71.8457 58.5565 53.52 1 1 1 -0.010383 -0.0020733 -0.00194601 -23.4604 -7.19726 11.7578 
3166 198 3 1.008 0.03 20.792 12.9793 6.06843 119.157 12.9793 55.2508 2 0 1 0.00793244 0.0104734 -0.00481486 -4.89741 -5.70316 -22.7382 
6322 396 1 16 -0.4 17.828 13.6904 4.93808 -129.719 161.237 -44.2443 -3 3 -1 -0.00159652 0.00305023 0.000416569 -6.43013 -1.10813 3.83074 
3154 198 1 16 -0.4 21.2198 14.9753 6.55128 119.584 14.9753 55.7336 2 0 1 -0.00206704 -0.00235995 -0.00590846 -29.2432 27.4328 5.59322 