ITEM: TIMESTEP
3500000
ITEM: NUMBER OF ATOMS
10479
ITEM: BOX BOUNDS pp pp pp
4.0882558190751794e-01 4.9591174418091420e+01
4.0882558190751794e-01 4.9591174418091420e+01
4.0882558190751794e-01 4.9591174418091420e+01
ITEM: ATOMS id mol type mass q x y z xu yu zu ix iy iz vx vy vz fx fy fz 
7617 477 1 16 -0.4 3.73717 5.86959 3.71689 3.73717 5.86959 52.8992 0 0 1 -0.000676388 0.00104442 0.005464 24.0526 18.7904 -30.7486 
7626 477 3 1.008 0.03 3.77541 7.19916 1.40595 3.77541 7.19916 50.5883 0 0 1 0.00687214 -0.00101502 -0.000561266 -3.61896 4.64652 -2.64602 
7620 477 2 12.01 0.14 4.4885 6.38882 1.42542 4.4885 6.38882 50.6078 0 0 1 0.00235555 0.0115066 0.0010777 49.3035 12.1991 -25.4875 
7618 477 1 16 -0.4 5.8596 6.87124 1.66187 5.8596 6.87124 50.8442 0 0 1 0.000134801 -0.00397402 0.00169537 -29.2336 12.002 18.7899 
7619 477 2 12.01 0.14 4.11967 5.34576 2.40913 4.11967 5.34576 51.5915 0 0 1 -0.00278242 -0.00591955 -0.00290206 -68.8626 -26.265 27.3253 
7621 477 2 12.01 0.11 3.19325 4.93187 4.56554 3.19325 4.93187 53.7479 0 0 1 0.000961767 -0.00875247 -0.00603002 -5.55591 -20.9359 21.641 
839 53 3 1.008 0.03 6.76985 2.73991 3.28753 55.9522 101.105 -45.8948 1 2 -1 0.000399287 -0.00164454 -0.0106008 0.152629 -6.1619 2.04994 
845 53 3 1.008 0.03 6.49143 4.53315 4.64417 55.6738 102.898 -44.5382 1 2 -1 0.0384008 0.0150878 0.00878549 2.87423 1.98807 3.71773 
837 53 2 12.01 0.11 7.4796 4.26105 5.03317 56.662 102.626 -44.1492 1 2 -1 0.00473396 -0.0046374 0.000112705 -1.04963 -27.7697 5.33184 
7629 477 3 1.008 0.03 2.43865 4.38946 4.04539 2.43865 4.38946 53.2277 0 0 1 0.0158944 -0.000947418 0.00452657 -13.5118 -10.2241 -5.42197 
7628 477 3 1.008 0.03 2.6673 5.35017 5.43872 2.6673 5.35017 54.6211 0 0 1 -0.00778531 -0.0122437 -0.0224124 10.6813 2.27526 -4.77348 
7627 477 3 1.008 0.03 3.94789 4.1994 4.87556 3.94789 4.1994 54.0579 0 0 1 -0.00692174 0.0248783 0.0365031 -2.75002 4.24839 0.872256 
843 53 3 1.008 0.03 7.37495 3.42257 5.79371 56.5573 101.787 -43.3886 1 2 -1 -0.00434639 0.0077198 -0.0053919 4.41358 23.6274 -21.5276 
6265 392 3 1.008 0.03 5.49205 7.32378 6.90578 5.49205 7.32378 105.27 0 0 2 -0.00373248 0.00506221 0.00465696 11.8348 -13.9909 -5.467 
7624 477 3 1.008 0.03 3.18933 4.77259 2.10084 3.18933 4.77259 51.2832 0 0 1 -0.0177875 0.00612663 0.0312848 25.0972 23.6195 -5.50996 
844 53 3 1.008 0.03 7.93854 5.11896 5.48097 57.1209 103.484 -43.7014 1 2 -1 0.00745611 -0.0120591 -5.62792e-05 -1.29636 9.79212 13.0027 
8669 542 3 1.008 0.03 4.93373 3.33994 7.18656 4.93373 52.5223 56.3689 0 1 1 0.0284595 0.0183634 0.00505173 -9.3969 19.0372 5.87705 
7622 477 2 12.01 0.11 6.00583 7.69552 2.8699 6.00583 7.69552 52.0523 0 0 1 0.00298166 -0.00566545 0.00503283 21.0077 -49.4892 -25.1647 
7630 477 3 1.008 0.03 6.04884 7.01531 3.74364 6.04884 7.01531 52.926 0 0 1 -0.00421653 0.00115763 0.00788539 -10.0681 14.1916 -4.18621 
7623 477 3 1.008 0.03 4.82685 4.56915 2.35166 4.82685 4.56915 51.534 0 0 1 -0.0218264 -0.0170618 -0.00566223 23.9065 -15.2777 14.3612 
840 53 3 1.008 0.03 7.72563 3.41739 2.02687 56.908 101.782 -47.1555 1 2 -1 0.0191538 -0.00828102 0.0110989 -0.655977 10.7183 6.35453 
835 53 2 12.01 0.14 7.79627 3.00067 3.03373 56.9786 101.365 -46.1486 1 2 -1 -0.000529872 0.00226141 -0.00366295 -1.07595 6.43489 2.16006 
841 53 3 1.008 0.03 8.32366 1.1977 2.01627 57.506 99.5624 -47.1661 1 2 -1 -0.0219184 -0.0148261 -0.0163294 -9.1296 -15.636 -2.03346 
833 53 1 16 -0.4 8.37085 3.93801 3.97618 57.5532 102.303 -45.2062 1 2 -1 0.00489092 0.00446389 -0.000332435 -9.49971 -13.355 -14.5454 
7631 477 3 1.008 0.03 6.98196 8.14898 2.8449 6.98196 8.14898 52.0272 0 0 1 0.00531144 -0.0252235 0.00844512 1.54876 -0.753724 4.42293 
8821 552 2 12.01 0.11 5.82304 0.553259 6.65062 5.82304 98.918 105.015 0 2 2 0.00227151 0.00169142 0.0022468 11.4636 -6.01136 17.4768 
7697 482 1 16 -0.4 1.56005 0.844393 0.72686 149.107 50.0267 99.0916 3 1 2 -0.000639027 0.00461578 -0.00508403 -1.2278 22.745 18.8769 
8670 542 3 1.008 0.03 0.898914 3.83946 6.53367 0.898914 53.0218 55.716 0 1 1 -0.0154862 0.000106956 0.00172738 18.3179 7.99124 2.62146 
8658 542 1 16 -0.4 0.857335 1.88743 7.31154 0.857335 51.0698 56.4939 0 1 1 0.000540115 0.00827081 -0.0035994 5.42143 -26.0462 -2.93265 
6264 392 3 1.008 0.03 3.56852 8.26033 6.39106 3.56852 8.26033 104.756 0 0 2 -0.0269776 -0.00907805 0.00685606 -1.71651 6.6894 -40.0787 
7703 482 3 1.008 0.03 2.32262 2.68888 1.29834 149.87 51.8712 99.663 3 1 2 -0.00257552 0.035873 0.00112969 8.96605 8.00278 -2.66167 
7632 477 3 1.008 0.03 5.34224 8.51843 2.93315 5.34224 8.51843 52.1155 0 0 1 -0.00838159 -0.0206079 0.0100262 -21.3003 9.95242 5.26231 
10117 636 4 14.01 -0.66 1.51132 8.1413 0.744817 1.51132 8.1413 49.9272 0 0 1 -0.00329392 -0.00449822 0.00281709 -47.1869 12.0206 27.9635 
6259 392 2 12.01 0.14 3.65509 8.15527 7.41331 3.65509 8.15527 105.778 0 0 2 8.95863e-05 -0.00277525 -0.00688547 -4.10996 -1.99875 41.7414 
8667 542 3 1.008 0.03 4.48884 5.03322 7.13805 4.48884 54.2156 56.3204 0 1 1 0.000317522 0.00519467 0.00344697 -1.66648 39.4458 -26.6275 
7625 477 3 1.008 0.03 4.53889 5.87406 0.42697 4.53889 5.87406 49.6093 0 0 1 0.00219994 -0.0176245 0.0019414 -6.20352 15.8868 18.0706 
7704 482 3 1.008 0.03 1.89714 1.6909 2.66008 149.444 50.8732 101.025 3 1 2 -0.0054549 -0.0400443 1.46032e-05 -10.7139 2.46196 7.75695 
3277 205 3 1.008 0.03 1.3838 0.652039 5.17752 1.3838 49.8344 103.542 0 1 2 0.00509898 -0.0115345 0.0140454 -15.779 8.45119 12.0849 
7699 482 2 12.01 0.14 2.30086 1.67593 1.667 149.848 50.8583 100.032 3 1 2 -0.0058203 -0.00199995 -0.00386199 -1.74073 -46.4309 -21.0131 
7706 482 3 1.008 0.03 4.41256 1.52888 2.28054 151.96 50.7112 100.645 3 1 2 -0.000438455 0.0273408 0.0172712 -17.7788 9.44658 -9.46587 
8828 552 3 1.008 0.03 6.21884 1.47592 6.26726 6.21884 99.8406 104.632 0 2 2 0.0151691 0.00738544 0.0103909 4.8804 2.44821 -16.4688 
7700 482 2 12.01 0.14 3.65738 0.943172 1.71721 151.204 50.1255 100.082 3 1 2 -0.00251445 0.00573718 0.00521333 16.4107 27.0907 32.2253 
10119 636 6 16 -0.53 0.894851 5.59122 0.524248 0.894851 5.59122 49.7066 0 0 1 0.0016245 0.00279994 -0.00135085 13.2762 45.7925 -0.0871576 
7705 482 3 1.008 0.03 4.06793 0.911444 0.736545 151.615 50.0938 99.1012 3 1 2 0.01238 0.00206041 0.0002972 5.52709 -10.7907 -18.491 
4454 279 2 12.01 0.11 16.4254 0.826709 6.39122 16.4254 50.0091 104.756 0 1 2 0.00180063 0.0124177 0.00391768 28.9298 2.83803 -2.23306 
848 53 3 1.008 0.03 10.9192 0.921674 4.33542 60.1015 99.2864 -44.8469 1 2 -1 -0.0169269 0.00109794 -0.0174009 3.4898 18.0919 -9.23112 
836 53 2 12.01 0.14 8.69002 1.78474 2.83437 57.8724 100.149 -46.348 1 2 -1 -0.00198466 0.00960075 -0.00687782 38.379 27.0657 -18.9833 
842 53 3 1.008 0.03 9.65199 2.17804 2.39201 58.8343 100.543 -46.7903 1 2 -1 0.0054953 0.00440431 0.00477898 -15.8825 -11.5591 21.0189 
834 53 1 16 -0.4 8.82663 1.0831 4.04773 58.009 99.4478 -45.1346 1 2 -1 0.00425519 0.00345791 -2.08855e-05 -28.716 14.4585 13.7121 
5173 324 2 12.01 0.11 13.125 2.07046 6.8387 13.125 2.07046 56.021 0 0 1 0.00459487 0.00263417 -0.00386322 -3.90955 -26.259 -14.5999 
5169 324 1 16 -0.4 13.572 3.19742 6.15035 13.572 3.19742 55.3327 0 0 1 -0.006706 0.0015363 0.0046982 12.3122 19.8363 -17.6931 
5171 324 2 12.01 0.14 12.7672 3.63423 5.05236 12.7672 3.63423 54.2347 0 0 1 -0.00880899 0.0064459 0.0037956 -15.6865 -10.9114 13.7779 
5178 324 3 1.008 0.03 14.2225 5.04254 4.5473 14.2225 5.04254 53.7297 0 0 1 -6.42032e-05 -0.000581995 -0.00395482 14.5541 16.749 1.11354 
5172 324 2 12.01 0.14 13.5378 4.44402 3.99845 13.5378 4.44402 53.1808 0 0 1 0.000212769 0.00632934 0.0023456 -49.8276 26.6274 -8.89314 
5170 324 1 16 -0.4 14.1822 3.44097 3.28352 14.1822 3.44097 52.4659 0 0 1 -0.00678518 -0.00700321 0.000207333 7.63308 -15.8358 -13.9558 
5184 324 3 1.008 0.03 14.7499 2.96568 1.26318 14.7499 2.96568 50.4455 0 0 1 -0.00396094 -0.00472975 0.0204581 1.61402 10.0913 23.1741 
5183 324 3 1.008 0.03 15.2739 4.59413 1.92448 15.2739 4.59413 51.1068 0 0 1 -0.000814122 -0.0067886 -0.0302556 -15.4565 -21.9228 1.80049 
5177 324 3 1.008 0.03 12.8334 5.11912 3.33641 12.8334 5.11912 52.5188 0 0 1 0.00889529 0.0195625 0.013908 33.5308 -34.5242 35.0671 
7274 455 3 1.008 0.03 11.3413 8.47523 6.30531 60.5237 8.47523 55.4877 1 0 1 0.0111091 0.0126919 0.0321096 -1.85761 7.17633 1.24189 
5182 324 3 1.008 0.03 13.6478 4.29333 1.42222 13.6478 4.29333 50.6046 0 0 1 -0.00812026 0.0115205 -0.00903986 0.365935 -2.63136 14.1989 
7279 455 3 1.008 0.03 9.49125 7.17331 4.88122 58.6736 7.17331 54.0636 1 0 1 0.00141234 0.0137104 0.0129774 -17.2257 12.914 18.3627 
5174 324 2 12.01 0.11 14.4727 3.8013 1.95751 14.4727 3.8013 51.1399 0 0 1 9.72156e-05 0.00324526 0.00793854 22.2754 27.8636 -39.6219 
7268 455 2 12.01 0.14 12.0289 7.97463 5.63717 61.2112 7.97463 54.8195 1 0 1 0.00643833 0.00472421 0.00321041 -0.0581347 4.42827 -29.433 
7273 455 3 1.008 0.03 12.2007 6.99195 6.09896 61.383 6.99195 55.2813 1 0 1 -0.0121823 0.0055378 -0.02965 6.71794 5.55212 -3.09803 
5176 324 3 1.008 0.03 12.0001 4.18646 5.61562 12.0001 4.18646 54.798 0 0 1 0.00609708 0.0351065 0.0373742 -1.02856 2.70365 -17.3331 
7265 455 1 16 -0.4 14.1608 7.8458 4.63085 63.3431 7.8458 53.8132 1 0 1 0.00413 -0.00163246 -0.00330383 -27.9988 -3.84786 15.9943 
7275 455 3 1.008 0.03 15.9463 7.63167 3.70487 65.1286 7.63167 52.8872 1 0 1 0.021098 -0.00158593 -0.0102095 -10.1545 -2.57072 -1.20848 
7269 455 2 12.01 0.11 15.3317 8.39331 4.18207 64.514 8.39331 53.3644 1 0 1 -0.00306622 -0.00102082 0.00264192 28.0088 2.8291 -22.6906 
5179 324 3 1.008 0.03 13.3994 1.16925 6.21403 13.3994 1.16925 55.3964 0 0 1 0.011199 0.0173709 0.0185894 -10.7638 18.654 19.2651 
7270 455 2 12.01 0.11 10.3444 6.85243 4.35886 59.5267 6.85243 53.5412 1 0 1 -0.00558918 0.00127007 -0.00367152 -1.29062 21.0168 -49.8916 
7278 455 3 1.008 0.03 10.5404 5.85742 4.66464 59.7228 5.85742 53.847 1 0 1 -0.00918663 0.0211015 -0.00574112 13.6271 -17.8063 5.51591 
7280 455 3 1.008 0.03 10.0061 6.83882 3.29421 59.1885 6.83882 52.4766 1 0 1 0.023215 -0.00100334 -0.0187112 4.13582 -6.92299 18.4156 
5175 324 3 1.008 0.03 12.3092 2.79714 4.50472 12.3092 2.79714 53.6871 0 0 1 -0.00436217 0.00185676 0.0146865 -3.00181 2.72894 10.6227 
7266 455 1 16 -0.4 11.414 7.79443 4.34743 60.5963 7.79443 53.5298 1 0 1 0.0026585 -0.000395569 -0.00909874 1.07154 -6.57349 22.0701 
9099 569 3 1.008 0.03 15.0698 0.62983 2.65164 -34.1125 49.8122 -46.5307 -1 1 -1 -0.0119228 -0.00332976 -0.00677086 -5.68333 -27.1762 0.488948 
4463 279 3 1.008 0.03 16.1186 1.03478 5.36322 16.1186 50.2171 103.728 0 1 2 -0.0267619 0.00223092 -0.00150821 5.59735 4.02845 0.937852 
4462 279 3 1.008 0.03 16.037 1.61312 7.03887 16.037 50.7955 105.404 0 1 2 -0.00972667 -0.0155706 0.00792346 -4.24748 -2.42352 -0.416378 
6227 390 2 12.01 0.14 12.2771 7.25679 0.732505 12.2771 -41.9256 148.28 0 -1 3 0.00802989 -0.000669963 0.000439518 -52.8107 -40.8711 -22.7971 
6231 390 3 1.008 0.03 13.057 6.62744 0.983678 13.057 -42.5549 148.531 0 -1 3 0.00850248 -0.00562458 -0.0119761 40.2902 -7.76567 15.2573 
6232 390 3 1.008 0.03 11.5061 6.98709 1.51753 11.5061 -42.1953 149.065 0 -1 3 -0.0090253 -0.00900857 -0.0111941 18.772 26.0196 -14.3626 
8526 533 3 1.008 0.03 11.6428 2.37402 0.670487 60.8251 51.5564 0.670487 1 1 0 0.00636437 -0.0133891 0.00234019 -8.27418 2.85613 15.6003 
430 27 3 1.008 0.03 15.3902 6.54136 6.8026 15.3902 55.7237 55.9849 0 1 1 -0.024211 -0.011293 -0.0283183 16.5995 -9.54557 0.211471 
6329 396 3 1.008 0.03 15.5521 7.8467 1.24211 -131.995 155.394 -47.9402 -3 3 -1 -0.0214484 -0.0187174 0.0475229 6.05024 -16.7142 -5.27528 
5181 324 3 1.008 0.03 12.0749 2.0555 7.16407 12.0749 2.0555 56.3464 0 0 1 0.00259501 -0.00582951 0.0067741 2.95213 3.4351 -10.3515 
5660 354 3 1.008 0.03 24.3301 4.98926 4.90679 -24.8523 54.1716 4.90679 -1 1 0 0.00236216 0.0366259 0.00636249 -33.3041 7.17278 -21.2503 
5655 354 3 1.008 0.03 23.5478 2.24175 3.86585 -25.6346 51.4241 3.86585 -1 1 0 0.0215933 -0.0292273 0.0142371 -14.3372 9.49886 19.9648 
5659 354 3 1.008 0.03 23.0144 5.91622 3.99272 -26.168 55.0986 3.99272 -1 1 0 -0.0175882 0.00586084 0.0024622 5.45223 11.9192 -1.779 
5664 354 3 1.008 0.03 18.8953 1.5 3.69518 -30.287 50.6824 3.69518 -1 1 0 0.0368683 0.00683305 0.00316921 13.7559 -10.1273 11.0695 
5652 354 2 12.01 0.14 21.8398 1.82481 5.13704 -27.3425 51.0072 5.13704 -1 1 0 0.00760526 -1.89202e-05 0.00505949 -21.5343 -46.3717 8.93827 
5650 354 1 16 -0.4 20.7069 2.16913 4.33566 -28.4755 51.3515 4.33566 -1 1 0 4.44362e-05 0.0010806 -0.00025203 12.3595 17.9011 13.1618 
2025 127 3 1.008 0.03 17.1286 3.53239 5.87157 -32.0538 52.7147 5.87157 -1 1 0 -0.00530684 -0.00548857 -0.00509051 3.6026 -3.33291 0.31378 
10320 649 5 32.06 1.02 20.9257 2.95706 1.22212 20.9257 2.95706 1.22212 0 0 0 0.000226241 -0.0008761 0.000310143 -34.7813 39.9613 4.58252 
2022 127 2 12.01 0.11 17.5054 4.01555 3.42995 -31.6769 53.1979 3.42995 -1 1 0 -0.00591543 -0.00509044 -0.00206908 33.8362 1.25013 -22.0501 
2018 127 1 16 -0.4 18.6155 3.99419 4.36254 -30.5669 53.1765 4.36254 -1 1 0 0.00190271 -0.00214909 0.00238932 -37.9854 -4.34568 24.1572 
10458 669 9 24.305 2 20.5321 4.08471 4.27155 -28.6502 53.2671 4.27155 -1 1 0 0.00181883 -0.000790967 0.00155526 0.688392 2.7652 2.63585 
2017 127 1 16 -0.4 20.3461 4.22408 6.19842 -28.8363 53.4064 6.19842 -1 1 0 0.000775313 -0.00169334 0.00697393 60.556 27.2525 4.80057 
2030 127 3 1.008 0.03 17.9465 4.0435 2.39615 -31.2358 53.2258 2.39615 -1 1 0 -0.00783419 0.00136572 0.0180349 -14.6658 3.70983 20.1931 
10291 647 6 16 -0.53 20.393 6.07865 4.06898 20.393 55.261 4.06898 0 1 0 -0.0040087 0.00322403 -0.00280015 8.8116 13.3942 17.3337 
2026 127 3 1.008 0.03 17.6988 5.19062 5.77455 -31.4836 54.373 5.77455 -1 1 0 0.0215218 0.00639807 0.0117827 4.7623 -12.6804 3.97474 
2020 127 2 12.01 0.14 18.028 4.13101 5.70501 -31.1544 53.3134 5.70501 -1 1 0 0.00223396 0.00303531 0.00269 9.37208 13.0762 -37.137 
10322 649 6 16 -0.53 20.5578 3.89383 2.29847 20.5578 3.89383 2.29847 0 0 0 0.00036835 0.0014565 0.00421256 35.7319 -5.69036 -33.9971 
2032 127 3 1.008 0.03 16.8394 4.87263 3.56881 -32.3429 54.055 3.56881 -1 1 0 -0.0025941 -0.00539291 0.0121236 2.41332 -0.357456 -0.597912 
2031 127 3 1.008 0.03 16.9299 3.09973 3.45901 -32.2524 52.2821 3.45901 -1 1 0 0.00652362 -0.00320053 0.0114805 -4.70599 -4.45763 4.99193 
5649 354 1 16 -0.4 22.4762 4.02699 4.41629 -26.7062 53.2093 4.41629 -1 1 0 -0.000183867 -0.00589954 -0.00553157 13.828 -31.1405 12.1556 
5651 354 2 12.01 0.14 22.9982 2.66947 4.75584 -26.1841 51.8518 4.75584 -1 1 0 0.00849853 0.00277563 0.00326779 5.82051 43.4381 -51.013 
5657 354 3 1.008 0.03 22.1241 0.778221 5.03522 -27.0583 49.9606 5.03522 -1 1 0 -0.00103331 -0.0374229 0.0116817 0.37738 -0.009679 -11.2491 
5654 354 2 12.01 0.11 19.8959 1.0853 3.96673 -29.2864 50.2676 3.96673 -1 1 0 0.0100728 0.00593745 0.00712678 -44.6306 -4.82924 14.1102 
5653 354 2 12.01 0.11 23.5189 4.97819 4.10124 -25.6634 54.1605 4.10124 -1 1 0 0.000237401 0.000561345 -0.00626012 23.8991 -31.5816 25.0401 
5658 354 3 1.008 0.03 21.5849 1.77031 6.20216 -27.5975 50.9527 6.20216 -1 1 0 -0.00739194 -0.0244621 0.00864295 2.79821 23.0226 -13.8133 
10312 649 4 14.01 -0.66 19.5361 2.39931 0.791215 19.5361 2.39931 0.791215 0 0 0 -0.00175104 0.0023762 0.00562478 10.2359 -8.88595 -1.21441 
10290 647 5 32.06 1.02 20.4954 7.52972 3.93182 20.4954 56.7121 3.93182 0 1 0 -0.000798673 0.00257139 0.002034 -11.6349 -15.4034 34.235 
10282 647 4 14.01 -0.66 21.0668 8.31821 5.17015 21.0668 57.5006 5.17015 0 1 0 0.00186986 0.00357212 0.0063047 -23.4703 -18.9443 -10.8594 
10295 647 8 19 -0.16 18.3776 7.79026 5.33238 18.3776 56.9726 5.33238 0 1 0 -0.00541629 -0.00284707 0.00276433 -12.3559 4.41136 25.3287 
5656 354 3 1.008 0.03 23.6777 2.66127 5.5634 -25.5047 51.8436 5.5634 -1 1 0 -0.0206756 -0.0142689 0.00351159 17.3328 5.95499 17.1936 
10294 647 8 19 -0.16 17.9796 7.28992 3.40765 17.9796 56.4723 3.40765 0 1 0 0.00346447 -0.000718384 -0.0045151 -25.1084 -10.1945 -36.3564 
10293 647 7 12.01 0.35 18.7403 8.03334 4.11371 18.7403 57.2157 4.11371 0 1 0 -0.00682633 -0.00900308 0.000395834 60.6149 -30.8488 20.7217 
10292 647 6 16 -0.53 20.865 7.98661 2.6544 20.865 57.169 2.6544 0 1 0 -0.0055569 -0.00642625 -0.00294612 10.1011 21.6148 -36.1994 
2023 127 3 1.008 0.03 19.3066 2.75792 7.00384 -29.8757 51.9403 7.00384 -1 1 0 0.0187105 0.0336777 0.013702 -14.638 26.5901 -13.9373 
2019 127 2 12.01 0.14 19.1307 3.83653 6.70657 -30.0517 53.0189 6.70657 -1 1 0 -0.00291865 -0.00483457 -0.000844687 -27.395 -36.603 45.4789 
2029 127 3 1.008 0.03 22.2598 4.94765 7.20627 -26.9226 54.13 7.20627 -1 1 0 0.00312845 0.00991692 0.0152238 15.1297 -0.621057 -28.4232 
2021 127 2 12.01 0.11 21.2431 4.64621 7.30247 -27.9393 53.8286 7.30247 -1 1 0 -0.00665735 -0.00908365 0.00066953 -35.416 -16.3828 38.0717 
5661 354 3 1.008 0.03 24.0574 4.75321 3.174 -25.1249 53.9356 3.174 -1 1 0 -0.0110405 -0.00501304 -0.0287357 -8.76625 -1.23328 1.46015 
5662 354 3 1.008 0.03 20.1474 0.59001 3.07681 -29.035 49.7724 3.07681 -1 1 0 0.0155927 0.0042134 -0.00616232 19.9868 -9.88607 -21.4112 
10321 649 6 16 -0.53 22.0026 2.08311 1.50368 22.0026 2.08311 1.50368 0 0 0 0.000392434 0.00250196 0.0028982 13.8188 -29.2711 8.32635 
10285 647 6 16 -0.53 23.5909 8.15833 4.95154 23.5909 57.3407 4.95154 0 1 0 -0.00101984 0.000344308 -0.000732309 10.8661 -7.6732 -17.5326 
10283 647 5 32.06 1.02 22.4725 8.48239 5.77627 22.4725 57.6647 5.77627 0 1 0 -0.00293265 -0.00358739 -0.00108135 15.1558 -2.84183 54.1201 
4400 275 3 1.008 0.03 24.6207 0.593004 6.40443 122.985 0.593004 -42.7779 2 0 -1 -0.0161235 0.00662735 -0.01383 14.8663 -0.475283 -8.48103 
10284 647 6 16 -0.53 22.5573 8.03725 7.19222 22.5573 57.2196 7.19222 0 1 0 -0.00170278 -0.00099462 0.00525621 -10.5463 28.6297 -53.0039 
6327 396 3 1.008 0.03 18.1419 6.90367 0.813136 -129.405 154.451 -48.3692 -3 3 -1 -0.00828473 0.00794957 -0.0177112 -8.27036 1.27935 3.37129 
4450 279 1 16 -0.4 17.8725 0.745926 6.55683 17.8725 49.9283 104.922 0 1 2 -0.00638109 0.00722419 -0.00377714 -20.476 -0.593325 1.17066 
4456 279 3 1.008 0.03 20.3651 0.490901 7.14355 20.3651 49.6732 105.508 0 1 2 -0.0202373 -0.00628721 -0.00330556 -27.0305 -10.6008 25.4539 
3704 232 3 1.008 0.03 0.559634 15.7306 1.97624 148.107 15.7306 51.1586 3 0 1 0.0159372 0.000107175 0.00742299 28.4508 -2.03372 17.3787 
10129 636 8 19 -0.16 1.80214 11.3877 0.488475 1.80214 11.3877 49.6708 0 0 1 -0.0048295 -0.000147242 -0.000699434 26.2846 1.01917 1.57878 
10128 636 7 12.01 0.35 0.696661 10.7242 0.624542 0.696661 10.7242 49.8069 0 0 1 -0.000239363 0.00515444 0.00141452 -15.0151 7.62592 -28.4231 
7557 473 2 12.01 0.11 5.07203 12.0285 1.90658 5.07203 159.576 100.271 0 3 2 0.00841226 0.00759547 0.000591169 39.8243 9.55794 -57.2573 
7553 473 1 16 -0.4 4.02754 12.9311 2.25206 4.02754 160.478 100.617 0 3 2 -0.00694547 -0.00745345 0.00325066 1.95164 -38.9618 11.4531 
7559 473 3 1.008 0.03 3.12645 11.6525 3.80983 3.12645 159.2 102.175 0 3 2 -0.0100442 0.000546031 -0.01469 17.1966 10.4574 -15.524 
7562 473 3 1.008 0.03 2.18665 13.4146 4.90518 2.18665 160.962 103.27 0 3 2 0.00386056 0.00102937 0.00650556 4.45862 10.3328 -15.3681 
7556 473 2 12.01 0.14 2.68451 13.7245 3.9535 2.68451 161.272 102.318 0 3 2 0.00365819 0.00440491 -0.00773134 -17.4995 -15.147 18.7931 
7561 473 3 1.008 0.03 1.94282 13.8629 3.15374 1.94282 161.41 101.518 0 3 2 -0.0137462 -0.00887346 -0.00865376 -0.291034 -2.37373 7.51659 
7555 473 2 12.01 0.14 3.6635 12.6094 3.58796 3.6635 160.156 101.953 0 3 2 -0.00104131 0.000480661 0.00726509 -0.793111 18.5002 11.0106 
7568 473 3 1.008 0.03 3.10274 15.8891 5.73067 3.10274 163.436 104.095 0 3 2 -0.0126688 0.0123044 -0.00550515 -13.7501 2.79327 -5.00215 
7554 473 1 16 -0.4 3.41433 14.9024 4.121 3.41433 162.449 102.486 0 3 2 0.00519581 -0.000683003 -0.00165069 39.6861 -22.8885 -30.4929 
7560 473 3 1.008 0.03 4.59802 12.6864 4.19027 4.59802 160.233 102.555 0 3 2 -0.0120267 0.0175918 0.00122623 -17.7907 -4.59909 0.669128 
4426 277 3 1.008 0.03 7.64792 13.2852 1.50945 106.013 13.2852 99.8742 2 0 2 -0.00246236 -0.0249516 0.0138516 21.5467 -2.26886 -8.43524 
8304 519 3 1.008 0.03 7.44392 15.8401 5.14343 7.44392 -33.3422 54.3258 0 -1 1 0.0218984 -0.0189496 -0.0098551 5.05885 8.71127 -4.69522 
2827 177 3 1.008 0.03 7.95256 10.984 6.7477 -41.2298 10.984 55.93 -1 0 1 -0.00475288 0.0137355 -0.0174211 2.44132 3.89885 -6.38953 
4417 277 1 16 -0.4 8.25622 10.8045 1.20314 106.621 10.8045 99.5678 2 0 2 -0.0034537 -0.000505636 -0.00437104 19.4576 -19.5965 -19.2778 
10126 636 6 16 -0.53 1.6102 9.6292 2.82535 1.6102 9.6292 52.0077 0 0 1 0.00735447 0.00323245 -0.00382757 -13.266 -0.251019 -24.1194 
7565 473 3 1.008 0.03 5.10189 10.9769 2.22732 5.10189 158.524 100.592 0 3 2 -0.000530788 -0.0138968 -0.00493072 -15.292 7.22665 5.09906 
7563 473 3 1.008 0.03 5.13541 12.0012 0.769934 5.13541 159.548 99.1346 0 3 2 0.0105317 0.0037809 0.0116583 -0.903975 -3.82072 37.475 
8295 519 3 1.008 0.03 7.17194 15.8965 2.65832 7.17194 -33.2858 51.8407 0 -1 1 -0.0139579 0.00690952 -0.00868548 0.0473805 -36.0007 13.5568 
4420 277 2 12.01 0.14 8.47333 13.1564 0.791297 106.838 13.1564 99.156 2 0 2 0.00601221 0.00170438 0.0027009 17.2266 49.2449 -2.35477 
10125 636 5 32.06 1.02 0.789612 9.24609 1.68077 0.789612 9.24609 50.8631 0 0 1 0.00184201 0.000910121 -0.00227756 32.4272 -28.8217 16.6362 
4421 277 2 12.01 0.11 8.60231 9.44096 0.793502 106.967 9.44096 99.1582 2 0 2 -0.00618629 -0.00759415 0.007537 -30.8176 44.326 30.323 
7564 473 3 1.008 0.03 6.06747 12.4537 2.16981 6.06747 160.001 100.535 0 3 2 -0.0162151 0.0133247 -0.0027925 -32.2782 -12.0473 9.41928 
8300 519 3 1.008 0.03 5.92673 15.078 1.05519 5.92673 -34.1043 50.2375 0 -1 1 -0.0181179 -0.0164829 -0.00271162 0.964253 5.67635 -8.75178 
4428 277 3 1.008 0.03 8.40051 8.83393 1.62936 106.765 8.83393 99.9941 2 0 2 -0.0133575 -0.0036632 0.0033651 10.8167 -12.1291 15.3938 
8301 519 3 1.008 0.03 4.53006 16.0993 1.20323 4.53006 -33.0831 50.3856 0 -1 1 0.0150283 0.00756883 0.0331676 18.3641 9.73748 8.33498 
7558 473 2 12.01 0.11 2.80279 15.957 4.67094 2.80279 163.504 103.036 0 3 2 -0.00345506 0.000195148 -0.000320509 -19.0991 29.5723 42.3256 
8303 519 3 1.008 0.03 6.37365 16.6461 6.16978 6.37365 -32.5362 55.3521 0 -1 1 0.00565569 0.00303007 0.031916 -5.87531 2.23727 7.12202 
8293 519 2 12.01 0.11 5.55581 16.0765 0.777778 5.55581 -33.1058 49.9601 0 -1 1 0.00130509 -0.000649522 0.0139097 -18.9043 -13.2523 43.4948 
7567 473 3 1.008 0.03 1.71122 16.0147 4.55478 1.71122 163.562 102.919 0 3 2 -0.0140244 -0.00888971 -0.00666424 6.69527 -2.12189 -1.73401 
2829 177 3 1.008 0.03 8.21997 9.38928 7.40231 -40.9624 9.38928 56.5847 -1 0 1 -0.0175044 -0.000437662 -0.00281963 -7.41584 -19.7482 -3.11457 
7277 455 3 1.008 0.03 15.9843 8.73822 4.97775 65.1667 8.73822 54.1601 1 0 1 0.00320932 0.00433539 0.00328959 -4.40421 9.81474 3.1633 
7267 455 2 12.01 0.14 13.3488 8.78146 5.36171 62.5312 8.78146 54.5441 1 0 1 0.000544312 -0.00251657 0.00119562 0.855351 -29.4488 -5.60728 
7271 455 3 1.008 0.03 13.8297 8.82554 6.32702 63.0121 8.82554 55.5094 1 0 1 -0.0166481 -0.00460092 -0.0117126 5.53085 16.1379 5.40662 
6236 390 3 1.008 0.03 11.7431 9.7465 2.1106 11.7431 -39.4359 149.658 0 -1 3 -0.0174626 -0.000514668 -0.0108427 34.0456 -24.1731 -13.6667 
4432 277 3 1.008 0.03 9.23452 15.7136 1.07003 107.599 15.7136 99.4347 2 0 2 0.00746973 -0.0119538 0.00112257 -10.0723 -3.66255 14.2006 
4418 277 1 16 -0.4 9.72377 13.7584 1.25874 108.088 13.7584 99.6234 2 0 2 0.00496358 -0.00126304 0.00546385 -3.5684 -33.3999 -9.1614 
6237 390 3 1.008 0.03 13.1737 8.72044 2.59457 13.1737 -40.4619 150.142 0 -1 3 0.0067239 -0.00686869 0.0131361 -6.55733 -1.30954 -11.8437 
7276 455 3 1.008 0.03 15.1132 9.12738 3.38765 64.2956 9.12738 52.57 1 0 1 -0.00585664 -0.0144792 -0.0177035 8.98329 0.908746 13.2599 
2426 152 3 1.008 0.03 10.4379 14.2772 4.27325 -137.109 63.4596 102.638 -3 1 2 0.00289657 -0.0256823 -0.0182682 -33.4552 17.0088 -18.5879 
4430 277 3 1.008 0.03 9.04594 14.8268 2.69244 107.411 14.8268 101.057 2 0 2 -0.017967 0.0114508 -0.00176397 -21.8603 12.3409 24.5702 
2425 152 3 1.008 0.03 11.8024 14.403 5.20073 -135.745 63.5854 103.565 -3 1 2 0.000173309 -0.0101657 -0.000436046 5.87971 -6.64711 -8.29356 
2418 152 1 16 -0.4 10.3593 13.427 6.2523 -137.188 62.6093 104.617 -3 1 2 1.17108e-05 0.000618293 -0.00722706 9.52588 31.0806 -13.1657 
2420 152 2 12.01 0.14 10.9471 13.7526 4.99558 -136.6 62.9349 103.36 -3 1 2 -0.00434513 -0.00333551 -0.00351449 34.0753 -36.5047 39.4323 
2421 152 2 12.01 0.11 13.2471 13.0575 3.07884 -134.3 62.2398 101.444 -3 1 2 -0.00400262 -0.00118427 0.0105202 -65.2265 27.9405 22.8614 
7272 455 3 1.008 0.03 13.3037 9.78396 4.84523 62.4861 9.78396 54.0276 1 0 1 0.0119598 0.00317208 -0.00440989 -8.59378 -21.3498 14.9263 
2417 152 1 16 -0.4 12.7964 12.4381 4.32237 -134.751 61.6204 102.687 -3 1 2 0.00364359 -0.00535056 -0.00290616 31.6673 8.43873 -23.7749 
2428 152 3 1.008 0.03 12.7924 14.0479 2.77049 -134.755 63.2302 101.135 -3 1 2 -0.0264795 0.00661367 0.0215837 2.48736 -25.9264 17.4845 
2429 152 3 1.008 0.03 14.2213 13.3059 3.19141 -133.326 62.4882 101.556 -3 1 2 -0.00493766 -0.0397667 0.0106428 50.551 6.3983 2.22633 
2427 152 3 1.008 0.03 13.0947 12.4247 2.25448 -134.452 61.6071 100.619 -3 1 2 -0.0135758 0.0176215 -0.00752036 0.693664 -18.5721 -19.3724 
2423 152 3 1.008 0.03 10.8801 12.1235 3.58023 -136.667 61.3059 101.945 -3 1 2 0.0217569 0.0222359 -0.0144079 6.29107 5.05819 -4.69147 
2419 152 2 12.01 0.14 11.4252 12.398 4.48638 -136.122 61.5804 102.851 -3 1 2 -0.00449534 0.00451452 0.00175001 -23.2986 0.623119 -27.2499 
2424 152 3 1.008 0.03 11.1599 11.5551 5.09823 -136.387 60.7374 103.463 -3 1 2 -0.00143346 -0.00311609 -0.00666903 1.05286 -2.44599 16.3116 
4679 293 3 1.008 0.03 14.1602 11.4588 6.73903 -35.0221 60.6412 55.9214 -1 1 1 0.0146758 -0.00176124 -0.00416003 -1.03339 22.9213 19.0329 
3166 198 3 1.008 0.03 15.4232 11.9761 4.61271 113.788 11.9761 53.7951 2 0 1 0.0300902 -0.00415054 0.0201241 29.2534 -10.3103 11.5944 
3161 198 3 1.008 0.03 15.9366 12.3319 2.38237 114.301 12.3319 51.5647 2 0 1 -0.0232947 -0.0141077 -0.0138823 -21.2495 18.0422 6.63228 
4683 293 3 1.008 0.03 12.1417 10.3067 7.35229 -37.0406 59.489 56.5346 -1 1 1 -0.0112803 0.011248 0.00696493 -4.58265 28.2056 21.4702 
3162 198 3 1.008 0.03 16.6706 11.2118 1.51494 115.035 11.2118 50.6973 2 0 1 -0.000880806 0.0203415 -0.0278575 0.417472 -25.9108 -9.19726 
9820 616 6 16 -0.53 16.1852 15.6964 2.86556 65.3675 15.6964 2.86556 1 0 0 0.00103558 0.00141988 0.000181246 -21.5658 -16.0785 -1.57182 
4431 277 3 1.008 0.03 10.6055 15.4804 2.11802 108.97 15.4804 100.483 2 0 2 -0.00733436 -0.037052 0.0215591 -17.1251 -15.8716 -0.0417122 
3158 198 2 12.01 0.11 16.4842 11.6145 4.79562 114.849 11.6145 53.978 2 0 1 0.00427918 0.00267353 0.00315771 -41.6602 44.5005 11.1004 
3167 198 3 1.008 0.03 16.4294 10.9026 5.61539 114.794 10.9026 54.7977 2 0 1 -0.0114126 -0.00448572 -0.0237251 4.96587 4.26966 5.28197 
3156 198 2 12.01 0.14 16.7871 11.7267 2.43308 115.152 11.7267 51.6154 2 0 1 -0.00294614 -0.00222412 0.00422836 43.4645 8.168 30.6771 
2430 152 3 1.008 0.03 9.58473 15.1939 6.63802 -137.962 64.3763 105.003 -3 1 2 -0.010483 -0.00584855 -0.00896519 -30.6564 19.8647 -6.98036 
2432 152 3 1.008 0.03 11.2067 15.3275 6.96609 -136.34 64.5099 105.331 -3 1 2 -0.0227663 -0.0167681 -0.00397573 11.1212 -7.42437 0.428494 
6229 390 2 12.01 0.11 12.7547 9.30839 1.76967 12.7547 -39.874 149.317 0 -1 3 0.00572583 -0.00176897 0.00962207 -27.884 38.0552 7.19845 
2828 177 3 1.008 0.03 9.61038 10.2685 6.93399 -39.572 10.2685 56.1163 -1 0 1 0.014375 0.00190549 0.00991524 6.03185 3.60514 -14.3481 
8650 541 3 1.008 0.03 12.4633 16.4331 1.13586 -36.7191 -32.7493 -48.0465 -1 -1 -1 0.0120907 -0.000308329 0.0207637 4.3325 -0.604604 -6.57733 
4422 277 2 12.01 0.11 9.61856 15.027 1.84249 107.983 15.027 100.207 2 0 2 -0.000666354 -0.00816193 -0.00471369 37.4435 12.9017 -38.1043 
6235 390 3 1.008 0.03 13.3834 10.2279 1.69122 13.3834 -38.9544 149.238 0 -1 3 -0.0135919 -0.00968147 -0.00721981 -6.4041 -19.3257 -4.66305 
2422 152 2 12.01 0.11 10.374 14.6305 7.00201 -137.173 63.8128 105.367 -3 1 2 0.00793424 -0.00355226 0.00437279 -6.86174 -23.006 45.4487 
6225 390 1 16 -0.4 12.655 8.61275 0.509716 12.655 -40.5696 148.057 0 -1 3 -0.00592429 -0.00165767 0.00485942 0.722411 2.89051 22.0503 
2821 177 2 12.01 0.11 8.62178 10.369 7.34021 -40.5606 10.369 56.5226 -1 0 1 -0.00544188 -0.00646475 -0.0019314 4.16063 2.64507 0.128397 
4680 293 3 1.008 0.03 13.5468 13.0701 7.24789 -35.6355 62.2525 56.4302 -1 1 1 0.0185734 0.0101211 -0.0084821 -7.04717 -2.48044 5.56499 
4427 277 3 1.008 0.03 9.56229 9.20742 0.427455 107.927 9.20742 98.7922 2 0 2 -0.0059629 0.00685756 -0.0271465 25.4458 4.1974 -7.71044 
3153 198 1 16 -0.4 18.8619 12.1726 1.23572 117.227 12.1726 50.4181 2 0 1 0.00333849 -0.00610732 -0.00138211 25.9686 -18.557 -18.9394 
3164 198 3 1.008 0.03 20.5462 11.0761 0.617064 118.911 11.0761 49.7994 2 0 1 0.0001561 0.0173851 -0.00911332 -36.0065 1.40512 55.8822 
6328 396 3 1.008 0.03 17.6881 8.65045 1.02812 -129.859 156.198 -48.1542 -3 3 -1 -0.00272269 0.00339494 0.00908857 6.65512 -18.5993 -9.03419 
10113 635 7 12.01 0.35 24.804 13.3859 1.99141 123.169 62.5682 1.99141 2 1 0 -0.000348509 -0.00169483 -0.00214105 -47.8692 -16.3745 17.3404 
3168 198 3 1.008 0.03 17.0772 12.54 5.04549 115.442 12.54 54.2278 2 0 1 0.0279359 0.00436555 -0.00170154 -5.77464 -25.1535 -5.64433 
9817 616 4 14.01 -0.66 17.012 16.5302 5.13802 66.1943 16.5302 5.13802 1 0 0 -0.00140446 -0.00219714 0.00156934 -33.7437 -6.70006 -4.02432 
3163 198 3 1.008 0.03 19.2865 10.2109 1.66492 117.651 10.2109 50.8473 2 0 1 0.00848775 0.00608856 0.00277333 -0.807591 -5.94009 -1.39682 
7807 488 3 1.008 0.03 23.7274 15.2617 7.21125 72.9098 15.2617 7.21125 1 0 0 0.00933334 -0.00230117 0.00111768 -2.46443 -11.3898 -5.27193 
7798 488 2 12.01 0.11 24.2955 16.0854 6.82183 73.4778 16.0854 6.82183 1 0 0 -0.00405712 0.00265513 -0.00113907 -5.16899 18.5854 50.5118 
3159 198 3 1.008 0.03 18.7556 12.7285 3.14296 117.12 12.7285 52.3253 2 0 1 -0.00851689 -0.0122525 0.00101801 -15.5384 1.13809 5.09953 