ITEM: TIMESTEP
4250000
ITEM: NUMBER OF ATOMS
10479
ITEM: BOX BOUNDS pp pp pp
4.0882558190751794e-01 4.9591174418091420e+01
4.0882558190751794e-01 4.9591174418091420e+01
4.0882558190751794e-01 4.9591174418091420e+01
ITEM: ATOMS id mol type mass q x y z xu yu zu ix iy iz vx vy vz fx fy fz 
2991 187 3 1.008 0.03 3.45427 3.3477 1.39876 52.6366 3.3477 99.7635 1 0 2 -0.0131198 -0.00201858 -0.00267927 8.03433 -3.77594 -15.9178 
2992 187 3 1.008 0.03 2.52039 4.78896 1.86634 51.7027 4.78896 100.231 1 0 2 0.0192678 0.00320011 0.0329555 -4.76786 -12.2667 -3.39021 
2982 187 2 12.01 0.11 2.90455 3.80671 2.18415 52.0869 3.80671 100.549 1 0 2 0.00504293 -0.0034383 -0.000360453 6.68014 33.8932 28.3777 
2990 187 3 1.008 0.03 3.64819 4.10157 2.95877 52.8305 4.10157 101.323 1 0 2 -0.0166116 -0.00984538 0.000682538 -9.88787 -8.80537 -10.2755 
2985 187 3 1.008 0.03 3.4631 1.77088 3.84469 52.6455 1.77088 102.209 1 0 2 0.00240102 -0.00447045 -0.0169836 -1.80013 20.1619 6.25244 
2980 187 2 12.01 0.14 2.62071 1.74744 3.16838 51.8031 1.74744 101.533 1 0 2 -0.000269025 -0.00792975 0.000816875 -7.2311 7.31866 -12.3427 
2986 187 3 1.008 0.03 3.13919 1.3195 2.32651 52.3215 1.3195 100.691 1 0 2 -0.00641279 -0.0181751 0.0118412 -6.53001 -8.59631 -12.4945 
2978 187 1 16 -0.4 1.92359 2.94538 2.73408 51.1059 2.94538 101.099 1 0 2 0.00854044 -0.00427639 0.00864778 29.0807 -8.34261 9.10293 
7927 496 3 1.008 0.03 1.70884 6.5937 5.31647 1.70884 6.5937 54.4988 0 0 1 0.010154 -0.0232173 -0.00670929 -28.7365 -11.4121 -26.5628 
6417 402 1 16 -0.4 2.05729 7.26939 0.826148 51.2396 -91.0953 0.826148 1 -2 0 0.00180881 0.00836895 -0.00178552 -4.28681 8.20436 -0.110447 
7928 496 3 1.008 0.03 1.54979 5.31729 4.14802 1.54979 5.31729 53.3304 0 0 1 0.000600888 -0.0100781 0.0124736 28.2826 -17.8052 -14.3005 
7931 496 3 1.008 0.03 1.4631 3.44812 5.25325 1.4631 3.44812 54.4356 0 0 1 0.0127297 0.00881424 0.000424166 -35.3751 35.5153 17.6966 
7925 496 2 12.01 0.11 0.864667 4.09384 6.00287 0.864667 4.09384 55.1852 0 0 1 0.00891499 0.0111027 -0.0100579 78.9557 -43.9197 -11.7345 
203 13 3 1.008 0.03 3.81655 3.7205 5.20243 102.181 -45.4618 5.20243 2 -1 0 -0.000877934 -0.0208859 0.0151479 12.7673 0.206632 -11.1691 
2796 175 3 1.008 0.03 7.9872 5.23751 3.67378 57.1695 152.785 52.8561 1 3 1 -0.000793573 0.00284272 -0.0111042 -1.65688 4.53125 -19.9376 
2789 175 2 12.01 0.11 7.9163 5.38056 4.72421 57.0986 152.928 53.9066 1 3 1 0.00100373 0.00363762 0.000632054 -17.5326 16.1672 21.8412 
2795 175 3 1.008 0.03 7.08235 6.09756 5.00484 56.2647 153.645 54.1872 1 3 1 0.0278267 0.0162737 0.0371013 22.3752 -20.8876 -6.89386 
8452 529 2 12.01 0.14 7.26153 2.01096 2.2171 56.4439 51.1933 100.582 1 1 2 0.00231909 -0.00202414 0.00209948 8.95713 -39.1337 11.2505 
199 13 3 1.008 0.03 3.41775 1.18467 5.80927 101.782 -47.9977 5.80927 2 -1 0 -0.00660732 -0.0278607 0.00189633 8.74932 -7.79957 18.1866 
2797 175 3 1.008 0.03 7.71589 4.39229 5.12288 56.8982 151.939 54.3052 1 3 1 -0.00981773 0.0106912 0.00426036 -7.73107 -1.87472 1.83206 
7932 496 3 1.008 0.03 1.7393 4.35922 6.61656 1.7393 4.35922 55.7989 0 0 1 0.0302634 -0.016853 -0.00831186 -14.0825 11.7366 2.63141 
6425 402 3 1.008 0.03 3.53103 8.18602 2.43417 52.7134 -90.1787 2.43417 1 -2 0 -0.0163145 -0.0120196 -0.00831251 2.16527 0.792902 4.93386 
8458 529 3 1.008 0.03 8.33597 2.06521 2.0952 57.5183 51.2476 100.46 1 1 2 -0.0308392 -0.0172881 0.0231477 7.16954 -0.614464 7.74031 
6261 392 2 12.01 0.11 4.74983 7.94641 6.34025 4.74983 7.94641 104.705 0 0 2 -0.00352129 0.00350768 0.00604824 -48.2661 64.7343 -18.8873 
6272 392 3 1.008 0.03 6.19296 7.32849 3.23493 6.19296 7.32849 101.6 0 0 2 -0.0146541 -0.00799889 0.00502697 7.00133 10.3894 -14.535 
6257 392 1 16 -0.4 5.61021 8.20457 5.28676 5.61021 8.20457 103.651 0 0 2 0.0016523 -0.00212497 0.00596392 22.2546 -4.64919 -24.5094 
7923 496 2 12.01 0.14 0.965223 5.99191 4.68271 0.965223 5.99191 53.8651 0 0 1 0.00192309 0.00707375 0.00393693 30.9672 4.88308 46.9579 
8450 529 1 16 -0.4 6.67369 3.15661 1.80908 55.856 52.339 100.174 1 1 2 0.00513165 -0.00116842 0.000711978 -16.1192 56.9748 -9.87034 
2979 187 2 12.01 0.14 1.56267 0.829132 3.69653 50.745 0.829132 102.061 1 0 2 0.00448678 -0.00965071 0.00294725 -13.409 -1.91134 -5.18048 
8455 529 3 1.008 0.03 5.69632 1.09667 0.944121 54.8787 50.279 99.3088 1 1 2 0.0156766 0.0223583 0.00715547 33.0471 -7.31068 11.3334 
6419 402 2 12.01 0.14 2.89146 8.34882 0.456383 52.0738 -90.0159 0.456383 1 -2 0 0.000577788 -0.00249272 -0.00630078 17.0764 -8.59571 -29.9184 
6269 392 3 1.008 0.03 4.75375 7.02094 6.75018 4.75375 7.02094 105.115 0 0 2 0.0166093 -0.0010827 0.00159282 17.9376 -46.8177 24.3275 
6271 392 3 1.008 0.03 7.85158 7.82374 2.81883 7.85158 7.82374 101.184 0 0 2 0.0164955 -0.00170345 0.0289718 3.9677 -19.2763 -9.12501 
6262 392 2 12.01 0.11 6.81317 7.90086 2.51041 6.81317 7.90086 100.875 0 0 2 -0.00397179 0.00311036 0.00822763 -4.07371 27.1701 22.1055 
6270 392 3 1.008 0.03 6.60568 7.50036 1.53133 6.60568 7.50036 99.896 0 0 2 -0.0120017 0.00461312 0.0206241 5.62528 -1.4714 -9.82151 
8451 529 2 12.01 0.14 6.71011 0.841799 1.40453 55.8925 50.0241 99.7692 1 1 2 0.0105272 -0.00764275 0.0010416 -39.7503 0.57625 -6.37641 
197 13 2 12.01 0.11 4.52888 3.616 6.01744 102.894 -45.5664 6.01744 2 -1 0 0.00401623 -0.00428885 0.0038217 -15.4383 -36.6441 28.9222 
7929 496 3 1.008 0.03 0.976052 7.36901 3.23337 0.976052 7.36901 52.4157 0 0 1 -0.0178287 0.00826688 0.0280305 19.4005 21.5285 -20.7636 
195 13 2 12.01 0.14 3.86955 1.3921 6.79582 102.234 -47.7903 6.79582 2 -1 0 0.00276036 -0.00420853 0.00102817 -1.92556 9.61138 10.2033 
193 13 1 16 -0.4 3.86039 2.80099 6.99305 102.225 -46.3814 6.99305 2 -1 0 -0.00379877 -0.00637166 0.000662843 4.99588 4.80673 1.91484 
8463 529 3 1.008 0.03 8.27225 3.73732 0.577327 57.4546 52.9197 98.942 1 1 2 -0.000663863 0.0251729 -0.0027545 25.3809 6.55093 4.57614 
8457 529 3 1.008 0.03 7.00474 1.82758 3.2798 56.1871 51.0099 101.644 1 1 2 0.0046489 -0.00224538 -0.00134017 6.06982 6.6077 -9.85984 
205 13 3 1.008 0.03 5.54317 3.23165 5.82931 103.908 -45.9507 5.82931 2 -1 0 0.00421997 -0.0113306 0.00178175 -8.47419 2.78554 -10.8628 
2977 187 1 16 -0.4 1.15157 1.20444 5.00217 50.3339 1.20444 103.367 1 0 2 0.00421508 -0.00145636 -0.00422256 26.0595 15.0453 -1.93228 
8454 529 2 12.01 0.11 7.22262 3.70713 0.603227 56.405 52.8895 98.9679 1 1 2 0.00267919 0.00070361 -0.00582633 -17.5483 -88.1863 -19.5094 
6268 392 3 1.008 0.03 3.70486 7.96363 5.95169 3.70486 7.96363 104.316 0 0 2 -0.00299515 -0.00568595 0.000553065 16.505 9.83507 5.17943 
204 13 3 1.008 0.03 4.60215 4.53043 6.54568 102.967 -44.6519 6.54568 2 -1 0 -0.0243236 0.00463787 0.00109558 5.42328 23.6053 0.933548 
2984 187 3 1.008 0.03 0.76521 0.784102 2.97814 49.9476 0.784102 101.343 1 0 2 0.0102281 -0.0333294 0.0161258 -14.3268 5.22208 -1.86827 
200 13 3 1.008 0.03 4.89442 1.04163 6.85049 103.259 -48.1407 6.85049 2 -1 0 0.0190928 -0.0119226 0.00970354 4.86728 -0.219503 -8.38233 
1170 74 1 16 -0.4 9.35444 1.18302 6.62375 9.35444 50.3654 104.988 0 1 2 0.00288186 0.00270842 0.000898605 0.841227 -3.31204 3.44557 
1177 74 3 1.008 0.03 10.3304 1.74832 4.95461 10.3304 50.9307 103.319 0 1 2 -0.0127141 -0.00759947 0.00988378 2.26389 4.02089 1.09278 
6450 404 1 16 -0.4 12.2242 4.323 0.787028 12.2242 -44.8594 0.787028 0 -1 0 0.00602823 0.0018299 -0.00575055 -1.85119 -0.282999 25.6919 
6863 429 3 1.008 0.03 14.5908 1.28486 6.01347 -34.5915 1.28486 202.743 -1 0 4 -0.033692 -0.0502078 0.00541564 35.5211 -13.0726 4.76774 
1178 74 3 1.008 0.03 11.3619 0.881327 6.06443 11.3619 50.0637 104.429 0 1 2 -0.011046 -0.0166055 0.00176505 -15.9608 7.56509 2.32332 
2794 175 3 1.008 0.03 10.7696 6.9923 7.18 59.9519 154.539 56.3623 1 3 1 -0.0208377 -0.0176467 0.00336553 1.75659 -14.6208 7.66903 
1172 74 2 12.01 0.14 10.5486 1.64465 6.02051 10.5486 50.827 104.385 0 1 2 0.0078328 -0.000539994 0.00116941 39.126 -1.54908 -23.7542 
2785 175 1 16 -0.4 9.17663 5.71601 5.24948 58.359 153.263 54.4318 1 3 1 -0.00525711 0.00265358 -0.000564862 10.415 1.54186 15.348 
2791 175 3 1.008 0.03 9.47515 7.51315 4.43743 58.6575 155.06 53.6198 1 3 1 0.00825017 -0.00887571 0.0163637 -1.58159 4.52189 16.9453 
2792 175 3 1.008 0.03 8.61601 7.49353 6.05264 57.7984 155.041 55.235 1 3 1 -0.024615 -0.00118992 0.0185921 6.96572 9.36894 -3.31938 
2787 175 2 12.01 0.14 9.45019 7.09841 5.46731 58.6325 154.645 54.6497 1 3 1 0.00417189 0.00926792 -0.00420119 0.657521 -25.1253 -31.6471 
2788 175 2 12.01 0.14 10.8427 7.19723 6.13458 60.0251 154.744 55.3169 1 3 1 -0.00241822 0.000257878 1.32977e-05 -36.9077 21.5871 -3.33788 
2793 175 3 1.008 0.03 11.0864 8.22891 6.13464 60.2687 155.776 55.317 1 3 1 -0.0124101 -0.0168974 0.0299709 6.81846 20.2596 -1.54418 
2786 175 1 16 -0.4 11.8228 6.52827 5.41288 61.0052 154.075 54.5952 1 3 1 -0.0048744 0.00612925 0.00214387 9.83079 -15.4027 -11.7251 
1171 74 2 12.01 0.14 11.1575 2.98846 6.56102 11.1575 52.1708 104.926 0 1 2 0.00192407 -0.00851398 -0.00458457 -36.8222 -17.9053 7.05788 
2566 161 2 12.01 0.11 15.5084 4.2783 3.33112 -33.674 -94.0864 3.33112 -1 -2 0 0.0032532 0.000482671 0.000928737 -18.2451 -1.17042 -15.6292 
3266 205 1 16 -0.4 16.2175 8.3318 6.36141 16.2175 57.5141 104.726 0 1 2 -0.00371788 0.00512944 -0.00115669 8.21542 5.5231 -15.1147 
1176 74 3 1.008 0.03 12.1121 3.2831 6.01173 12.1121 52.4654 104.376 0 1 2 -0.0245963 0.00755923 0.00261978 -32.7761 -1.61445 10.2868 
2575 161 3 1.008 0.03 14.7587 5.03073 3.08212 -34.4237 -93.334 3.08212 -1 -2 0 0.0113369 -0.00265177 -0.00126076 -11.3477 -11.1629 2.19668 
2576 161 3 1.008 0.03 15.5884 3.55781 2.52433 -33.594 -94.8069 2.52433 -1 -2 0 0.023588 0.00653789 -0.0195786 4.72445 -0.0268584 -5.07902 
2574 161 3 1.008 0.03 15.3103 3.77049 4.24043 -33.872 -94.5942 4.24043 -1 -2 0 -0.00524812 -0.026849 0.00607597 -11.344 -9.56067 16.8302 
6454 404 2 12.01 0.11 11.1078 4.24438 1.67041 11.1078 -44.938 1.67041 0 -1 0 0.00384332 0.000976468 -0.00162539 24.3108 -9.57891 33.3674 
6463 404 3 1.008 0.03 11.427 3.75748 2.63667 11.427 -45.4249 2.63667 0 -1 0 0.0164596 0.0276674 -0.00382731 -7.3879 10.0954 -22.5357 
6464 404 3 1.008 0.03 10.6425 5.19868 1.93848 10.6425 -43.9837 1.93848 0 -1 0 -0.0153703 -0.0108696 0.0046588 3.47628 -0.932131 -3.63472 
8478 530 3 1.008 0.03 12.8449 0.65217 3.07499 111.21 246.564 3.07499 2 5 0 0.0262961 -0.0191143 0.0181398 1.05932 13.9545 2.90884 
2790 175 2 12.01 0.11 13.0811 6.62537 6.03919 62.2635 154.172 55.2215 1 3 1 -0.00466446 -0.00832215 -0.00554305 -29.4042 -10.896 11.594 
6462 404 3 1.008 0.03 10.3754 3.62944 1.21451 10.3754 -45.5529 1.21451 0 -1 0 0.00092457 -0.00042675 -0.0077894 -15.3107 -12.857 -4.63372 
6854 429 2 12.01 0.11 15.5048 0.74829 5.6003 -33.6776 0.74829 202.33 -1 0 4 0.000362374 0.000973595 -0.00396775 -19.1297 -8.39739 -35.3402 
6864 429 3 1.008 0.03 15.2314 0.72383 4.51103 -33.951 0.72383 201.24 -1 0 4 0.0042932 -0.00141814 -0.0106293 4.47658 -5.60958 23.0893 
2798 175 3 1.008 0.03 13.7556 5.94422 5.5545 62.938 153.491 54.7369 1 3 1 -0.00284935 0.0155406 -0.00172751 9.37663 -7.79201 0.545711 
2799 175 3 1.008 0.03 13.433 7.61869 5.91349 62.6153 155.166 55.0958 1 3 1 0.0027978 -0.0068709 0.00920653 8.47506 15.9982 -0.541782 
2800 175 3 1.008 0.03 12.9022 6.39276 7.10929 62.0846 153.94 56.2916 1 3 1 -0.0441229 -0.00831069 -0.00362365 16.7319 -1.38059 -12.7492 
2562 161 1 16 -0.4 16.5693 5.09356 3.52654 -32.6131 -93.2711 3.52654 -1 -2 0 -0.00646406 0.0056428 0.00168006 14.2691 40.9269 -4.46057 
6850 429 1 16 -0.4 16.7832 1.32005 5.50646 -32.3991 1.32005 202.236 -1 0 4 0.00352235 0.00569048 0.00291787 9.0883 12.729 8.42969 
3269 205 2 12.01 0.11 16.2209 5.22563 7.04812 16.2209 54.408 105.413 0 1 2 -0.00587641 -0.00275409 0.00358769 -27.7997 12.643 13.4294 
1152 72 3 1.008 0.03 11.7531 7.09147 2.49865 11.7531 -42.0909 100.863 0 -1 2 0.00261969 0.0141231 -0.00218555 5.3005 3.46251 -5.32465 
1150 72 3 1.008 0.03 13.2648 7.82247 3.11287 13.2648 -41.3599 101.478 0 -1 2 0.00523552 -0.00256273 -0.0139498 -5.97004 -3.52032 -10.1903 
1142 72 2 12.01 0.11 12.3239 8.02406 2.56945 12.3239 -41.1583 100.934 0 -1 2 0.00376846 0.00367415 0.00713653 -3.59968 9.37966 17.6662 
1175 74 3 1.008 0.03 10.2511 3.6887 6.47521 10.2511 52.8711 104.84 0 1 2 0.0308205 -0.0083457 -0.00276149 43.0817 -9.85652 3.20855 
3276 205 3 1.008 0.03 15.4759 4.39494 6.85115 15.4759 53.5773 105.216 0 1 2 -0.00698364 0.0122732 -0.0122523 33.6742 12.8817 -13.1419 
3277 205 3 1.008 0.03 16.5088 5.89108 6.21962 16.5088 55.0734 104.584 0 1 2 -0.0123141 0.0143181 -0.00420584 -17.4572 -11.5313 -4.46229 
7975 499 3 1.008 0.03 15.7431 6.88254 0.472104 -82.6216 -91.4822 49.6545 -2 -2 1 0.0347741 -0.00140396 0.0272146 -9.00869 -10.4855 2.71924 
10317 649 8 19 -0.16 21.8916 1.00806 5.5469 21.8916 1.00806 5.5469 0 0 0 -0.00127399 -0.00507075 0.00507159 4.44362 -29.3658 15.5813 
1253 79 2 12.01 0.11 19.6562 0.807176 3.25502 118.021 -48.3752 101.62 2 -1 2 0.00460223 0.00452254 0.00506771 -14.3394 -13.9345 28.1038 
1249 79 1 16 -0.4 19.2545 1.29765 2.04544 117.619 -47.8847 100.41 2 -1 2 0.00258065 0.00629956 0.00312548 3.20467 9.90752 -29.5227 
812 51 3 1.008 0.03 23.3465 4.03213 5.08753 170.894 4.03213 -44.0948 3 0 -1 -0.0103758 0.0173548 0.00236995 12.8869 6.29955 -4.08106 
1261 79 3 1.008 0.03 19.0705 1.24453 4.05901 117.435 -47.9378 102.424 2 -1 2 -0.00389205 -0.0374967 -0.0147405 0.109893 0.334522 3.09862 
427 27 3 1.008 0.03 24.0053 6.9346 3.34757 24.0053 56.117 52.5299 0 1 1 -0.0103552 -0.0191072 -0.00528436 15.3682 -10.207 -5.53725 
807 51 3 1.008 0.03 21.4004 4.43899 6.32042 168.947 4.43899 -42.8619 3 0 -1 0.0192965 0.00661603 -0.00926968 19.299 21.0314 -4.07474 
2569 161 3 1.008 0.03 17.7388 3.3702 3.95516 -31.4436 -94.9945 3.95516 -1 -2 0 -0.00229763 -0.00267378 -0.00476038 -4.93686 39.5205 -3.32164 
2564 161 2 12.01 0.14 17.7897 4.49843 3.74862 -31.3926 -93.8663 3.74862 -1 -2 0 -0.00592181 -0.00680104 -0.00379548 48.8815 -78.6665 -75.3718 
2570 161 3 1.008 0.03 18.2055 4.90313 4.59071 -30.9768 -93.4616 4.59071 -1 -2 0 0.0141803 0.00852282 -0.00843366 17.1377 20.2615 34.6679 
1256 79 3 1.008 0.03 17.2487 1.66686 2.43705 115.613 -47.5155 100.802 2 -1 2 -0.00178573 0.0340997 -0.000794612 9.99224 -21.4091 -5.88551 
7981 499 3 1.008 0.03 17.102 7.90647 2.13331 -81.2627 -90.4582 51.3157 -2 -2 1 -0.00792627 0.0357901 -0.0220704 -8.4534 -17.2215 5.48638 
814 51 3 1.008 0.03 19.0593 8.29106 4.44751 166.606 8.29106 -44.7348 3 0 -1 -0.0285881 -0.0152607 -0.0132102 20.1646 -11.325 22.287 
2568 161 3 1.008 0.03 18.4339 4.01834 1.61422 -30.7484 -94.3464 1.61422 -1 -2 0 -0.0198153 -0.0030823 -0.0255362 4.14183 21.302 11.2605 
2571 161 3 1.008 0.03 20.6685 3.51585 1.09782 -28.5139 -94.8489 1.09782 -1 -2 0 -0.0035286 0.00461227 -0.00169265 -4.2034 -18.3593 -24.1941 
2572 161 3 1.008 0.03 20.8726 5.2422 1.12051 -28.3098 -93.1225 1.12051 -1 -2 0 -0.0185738 0.0188125 -0.00779807 1.1035 8.26452 -3.16216 
2563 161 2 12.01 0.14 18.7996 4.66362 2.45352 -30.3827 -93.7011 2.45352 -1 -2 0 -0.00292763 0.00301685 -0.00524371 -35.3165 -47.9768 61.4624 
2567 161 3 1.008 0.03 18.8817 5.68515 2.22871 -30.3007 -92.6795 2.22871 -1 -2 0 -0.0096312 -0.00597882 -0.0035067 -5.13763 26.4018 -16.2939 
2565 161 2 12.01 0.11 20.97 4.33015 1.68574 -28.2123 -94.0345 1.68574 -1 -2 0 -0.00268944 0.00641531 -0.0037507 38.4281 -11.9286 36.1684 
2561 161 1 16 -0.4 20.1175 4.24041 2.82441 -29.0648 -94.1243 2.82441 -1 -2 0 -0.00238858 7.11182e-06 -0.00259593 -5.47071 13.1221 -9.25032 
804 51 2 12.01 0.14 20.4797 6.16896 5.72392 168.027 6.16896 -43.4584 3 0 -1 -0.00232774 0.000489251 0.00514151 -57.875 16.9031 -3.01827 
429 27 3 1.008 0.03 22.3932 7.19763 3.86878 22.3932 56.38 53.0511 0 1 1 -2.27396e-05 0.0257151 -0.007861 -3.19131 -2.77199 2.35147 
801 51 1 16 -0.4 22.7955 5.93338 5.5833 170.343 5.93338 -43.5991 3 0 -1 0.00123172 0.00309258 0.00728931 3.9507 -7.19322 6.99341 
802 51 1 16 -0.4 20.5322 7.58042 5.94322 168.079 7.58042 -43.2391 3 0 -1 0.000902837 -0.00152055 -0.00113302 1.90402 -12.2162 -12.6919 
421 27 2 12.01 0.11 23.1984 7.62406 3.30543 23.1984 56.8064 52.4878 0 1 1 -0.00809662 -0.00535148 -0.00566208 6.09916 19.6047 -4.11836 
809 51 3 1.008 0.03 20.2786 5.90689 4.64996 167.826 5.90689 -44.5324 3 0 -1 0.0127086 0.0302625 -0.00813248 15.7872 7.80288 21.087 
806 51 2 12.01 0.11 19.3437 8.22703 5.53941 166.891 8.22703 -43.6429 3 0 -1 0.00479786 0.00313461 -0.000193583 -7.77846 20.0166 -29.8102 
428 27 3 1.008 0.03 23.5143 8.56271 3.77991 23.5143 57.7451 52.9623 0 1 1 0.0136843 -0.00632507 -0.0032115 -0.861545 -6.87177 1.59996 
2573 161 3 1.008 0.03 22.0644 4.12764 1.94959 -27.118 -94.2371 1.94959 -1 -2 0 -0.0400205 0.00621681 -0.0182556 -34.7278 10.3713 -6.04704 
813 51 3 1.008 0.03 24.6502 5.3655 4.95541 172.197 5.3655 -44.2269 3 0 -1 -0.00690009 0.0117594 0.00441816 -6.85859 -8.53767 -8.26642 
803 51 2 12.01 0.14 21.6817 5.53192 6.34102 169.229 5.53192 -42.8413 3 0 -1 -0.00671194 -0.00305471 -0.00113616 -1.50468 -45.0032 0.0387271 
1251 79 2 12.01 0.14 17.9004 1.02707 1.78614 116.265 -48.1553 100.151 2 -1 2 -0.00329293 0.00945449 0.00142766 -26.8552 -5.37987 -17.5419 
423 27 3 1.008 0.03 21.039 8.40442 3.06417 21.039 57.5868 52.2465 0 1 1 0.0113616 -0.0124409 0.0140041 -22.225 -1.03364 3.87792 
810 51 3 1.008 0.03 19.5377 5.82306 6.24061 167.085 5.82306 -42.9417 3 0 -1 -0.0124333 0.00035955 0.00351041 26.5659 1.6094 -6.47419 
417 27 1 16 -0.4 22.7389 7.89802 2.00036 22.7389 57.0804 51.1827 0 1 1 0.00232385 -0.00573802 0.00229168 -11.6064 5.19877 10.1614 
805 51 2 12.01 0.11 23.7915 4.9556 5.49905 171.339 4.9556 -43.6833 3 0 -1 0.00291209 -0.00195144 -0.00505732 13.7902 -11.752 23.2115 
811 51 3 1.008 0.03 24.2389 4.71476 6.48792 171.786 4.71476 -42.6944 3 0 -1 -0.00263876 0.00854063 -0.020693 -12.7641 2.47717 -9.60182 
808 51 3 1.008 0.03 21.9049 5.73478 7.37646 169.452 5.73478 -41.8059 3 0 -1 -0.0107179 -0.00421516 0.00229313 -7.89948 8.61601 8.75018 
425 27 3 1.008 0.03 20.7649 7.47833 0.530063 20.7649 56.6607 49.7124 0 1 1 -0.0201564 -0.0145779 0.0229762 -9.51485 -7.29849 4.8076 
420 27 2 12.01 0.14 20.6659 8.50735 0.859101 20.6659 57.6897 50.0414 0 1 1 0.00270216 -0.00175768 0.00752381 6.77569 23.4708 14.279 
815 51 3 1.008 0.03 18.4843 7.72248 5.97584 166.031 7.72248 -43.2065 3 0 -1 0.00858717 0.00829876 0.0371479 -0.173399 10.787 10.4782 
1260 79 3 1.008 0.03 20.6715 0.955599 3.46422 119.036 -48.2267 101.829 2 -1 2 0.00690273 -0.0133869 -0.0115073 25.8775 14.667 1.50367 
10313 649 5 32.06 1.02 23.7762 0.624641 7.36147 23.7762 0.624641 7.36147 0 0 0 -0.000252186 -0.00193943 0.00456883 3.42728 -13.7295 -5.73449 
6852 429 2 12.01 0.14 17.5407 1.39849 6.71831 -31.6417 1.39849 203.448 -1 0 4 0.000141624 -0.00951062 -0.00365983 5.53444 -29.4958 51.2256 
10312 649 4 14.01 -0.66 24.8152 0.743256 6.18735 24.8152 0.743256 6.18735 0 0 0 -1.94079e-06 -0.00608671 -0.00127177 -26.3043 -4.27165 21.7394 
6858 429 3 1.008 0.03 18.5545 1.78304 6.4724 -30.6279 1.78304 203.202 -1 0 4 -0.0172294 -0.002905 0.00577616 -13.8591 -4.36826 2.11612 
3275 205 3 1.008 0.03 17.2203 4.90307 7.37165 17.2203 54.0854 105.736 0 1 2 0.0164676 -0.00189036 0.00474807 -14.8231 -8.7309 10.38 
6267 392 3 1.008 0.03 4.88995 8.76832 7.06016 4.88995 8.76832 105.425 0 0 2 0.000444546 -0.0134482 -0.0239135 -6.72096 -14.7571 6.88614 
4762 298 3 1.008 0.03 4.26324 14.0646 6.9753 53.4456 14.0646 6.9753 1 0 0 0.0188175 0.0164213 0.010963 12.1256 0.0125752 -3.58845 
4768 298 3 1.008 0.03 2.56415 11.0985 6.48027 51.7465 11.0985 6.48027 1 0 0 -0.00129907 0.00780986 0.0100674 -2.82931 -18.3414 -4.77566 
4767 298 3 1.008 0.03 2.52479 12.6364 7.16409 51.7071 12.6364 7.16409 1 0 0 -0.000254697 0.0131318 -0.00488071 -12.1876 12.4008 5.1537 
8236 515 3 1.008 0.03 3.07603 16.5386 6.83741 101.441 16.5386 -42.3449 2 0 -1 0.00176493 -0.0155488 0.00666621 -10.0027 -8.22687 9.86065 
6420 402 2 12.01 0.14 3.33817 8.98481 1.72313 52.5205 -89.3799 1.72313 1 -2 0 0.00117641 0.00405741 -0.00827261 -41.6342 1.32474 20.5975 
6264 392 3 1.008 0.03 5.85386 10.1511 5.71851 5.85386 10.1511 104.083 0 0 2 -0.0166176 0.001384 -0.0151966 0.265682 -1.76691 -12.2852 
8901 557 2 12.01 0.11 2.5184 14.8988 2.98095 -46.664 113.264 101.346 -1 2 2 0.00513724 0.00343561 0.0019402 -11.7721 15.3053 -45.0124 
8899 557 2 12.01 0.14 0.905231 15.9842 1.65576 -48.2771 114.349 100.02 -1 2 2 -0.0038948 0.00499512 0.00103299 13.269 11.0821 11.0258 
8909 557 3 1.008 0.03 3.10936 15.2199 3.83043 -46.073 113.585 102.195 -1 2 2 0.00301027 0.00297051 0.00208263 2.36596 -16.1625 9.36335 
8897 557 1 16 -0.4 1.40285 15.7817 2.97298 -47.7795 114.146 101.338 -1 2 2 -0.000982093 0.00811314 0.00739091 17.1171 -1.42412 -9.45653 
6263 392 3 1.008 0.03 4.66205 9.99391 4.42077 4.66205 9.99391 102.785 0 0 2 0.0153238 0.00200513 -0.00157052 35.3161 -23.1666 8.84649 
6430 402 3 1.008 0.03 2.41694 11.4146 0.872906 51.5993 -86.9501 0.872906 1 -2 0 -0.00410085 -0.016579 0.000451451 -3.52325 -1.54415 17.6276 
4757 298 2 12.01 0.11 5.93587 14.8495 4.01931 55.1182 14.8495 4.01931 1 0 0 0.000738216 -0.00746093 -0.00129858 -6.92736 32.6833 32.6251 
6418 402 1 16 -0.4 2.28535 9.81725 2.22232 51.4677 -88.5474 2.22232 1 -2 0 0.00294185 -0.00275629 0.00123248 -5.44166 -0.31316 8.95 
6431 402 3 1.008 0.03 1.42416 11.6515 2.31723 50.6065 -86.7132 2.31723 1 -2 0 -0.00453745 0.0350612 0.0349397 -20.3394 14.2911 8.91803 
6422 402 2 12.01 0.11 2.31985 11.2271 1.96943 51.5022 -87.1376 1.96943 1 -2 0 -0.00522079 0.00239921 -0.00203509 19.2559 -38.4071 -43.6446 
6426 402 3 1.008 0.03 4.21768 9.4869 1.61283 53.4 -88.8778 1.61283 1 -2 0 0.0010784 -0.0249616 0.035198 40.1122 27.5707 -6.23565 
4759 298 3 1.008 0.03 6.631 12.98 5.52855 55.8133 12.98 5.52855 1 0 0 0.0479269 0.0293211 -0.00441548 2.14672 9.72516 1.75476 
4754 298 1 16 -0.4 4.25793 12.2904 6.18348 53.4403 12.2904 6.18348 1 0 0 0.00312879 0.00178847 -0.00660353 -10.0465 -35.9916 -25.3692 
4760 298 3 1.008 0.03 7.06393 13.9646 6.91792 56.2463 13.9646 6.91792 1 0 0 0.0207393 -0.0129163 0.000316132 -11.9827 2.57374 -7.1093 
4755 298 2 12.01 0.14 6.25869 13.7925 6.1742 55.441 13.7925 6.1742 1 0 0 0.0047067 0.00407576 0.00597365 11.1059 -31.1045 -9.98164 
4758 298 2 12.01 0.11 3.1753 11.8134 6.9834 52.3576 11.8134 6.9834 1 0 0 -0.00103254 0.00251757 -0.00112308 21.1485 18.5447 -1.2393 
4756 298 2 12.01 0.14 4.98812 13.2446 6.82839 54.1705 13.2446 6.82839 1 0 0 0.00182006 -0.00355596 -0.000238155 -19.423 63.0212 2.97363 
4764 298 3 1.008 0.03 5.63456 15.8764 3.68915 54.8169 15.8764 3.68915 1 0 0 0.000601511 0.00778522 0.00290254 9.89569 -20.3467 -3.23247 
6432 402 3 1.008 0.03 3.16551 11.6474 2.45286 52.3479 -86.7173 2.45286 1 -2 0 0.010402 -0.00647019 0.0165837 13.4274 11.3189 10.9542 
4753 298 1 16 -0.4 5.96956 14.9734 5.45836 55.1519 14.9734 5.45836 1 0 0 -0.000387466 0.00473709 0.00138429 4.90978 7.64645 -15.7911 
6258 392 1 16 -0.4 6.67904 9.34401 2.55792 6.67904 9.34401 100.923 0 0 2 -0.005625 -0.000573571 -0.00846691 -15.1581 -25.9938 -6.64811 
4765 298 3 1.008 0.03 6.89032 14.545 3.59191 56.0727 14.545 3.59191 1 0 0 0.0257951 0.00439696 0.00171735 0.446422 0.029797 -1.4653 
4763 298 3 1.008 0.03 5.14109 14.1823 3.7633 54.3234 14.1823 3.7633 1 0 0 0.0136078 -0.0162489 0.0153547 -5.38473 -12.782 -8.35479 
6266 392 3 1.008 0.03 7.79094 9.51501 4.32856 7.79094 9.51501 102.693 0 0 2 0.0224301 -0.0102441 0.022854 -8.28549 -9.43954 -3.73003 
8908 557 3 1.008 0.03 3.1361 15.0369 2.04172 -46.0462 113.402 100.406 -1 2 2 0.0162706 -0.000345802 0.0123782 -11.4149 -2.8562 25.6552 
6265 392 3 1.008 0.03 7.02169 10.907 3.89447 7.02169 10.907 102.259 0 0 2 -0.013838 -0.022709 0.00446228 -10.4658 -12.1832 -11.3027 
6259 392 2 12.01 0.14 5.65855 9.55869 4.80382 5.65855 9.55869 103.169 0 0 2 0.00564175 -0.00477608 0.000939503 -46.4611 18.3733 22.4096 
8907 557 3 1.008 0.03 2.07085 13.8871 2.92706 -47.1115 112.252 101.292 -1 2 2 0.00246813 -0.00449489 -0.00294207 16.1565 6.20568 14.7041 
6260 392 2 12.01 0.14 6.83333 9.81213 3.87575 6.83333 9.81213 102.24 0 0 2 0.00498182 0.00240433 -0.00268509 29.8431 31.6785 17.9499 
8904 557 3 1.008 0.03 0.765792 15.0192 1.14397 -48.4166 113.384 99.5087 -1 2 2 0.00831251 -0.0181076 -0.0319029 -6.92561 8.34895 -0.252256 
8903 557 3 1.008 0.03 1.58788 16.6331 1.05678 -47.5945 114.998 99.4215 -1 2 2 -0.00379171 -0.0103891 0.0157211 -4.95389 -15.3063 9.34583 
2435 153 2 12.01 0.14 13.3607 15.1637 7.34773 111.725 64.346 7.34773 2 1 0 0.00486819 -0.00236955 -0.00685721 24.4937 3.19816 -0.576148 
3280 205 3 1.008 0.03 16.4071 9.08969 4.45786 16.4071 58.272 102.823 0 1 2 -0.00811702 -0.0210535 0.0173417 -23.2156 14.4512 36.2001 
7973 499 2 12.01 0.11 16.7806 8.75111 1.55903 -81.5841 -89.6136 50.7414 -2 -2 1 0.0002525 -0.00308293 0.00281917 33.4643 16.6764 -36.9445 
1140 72 2 12.01 0.14 13.1265 9.96136 1.55514 13.1265 -39.221 99.9198 0 -1 2 -0.000861286 -0.00826699 0.00939878 9.77297 -38.7553 -19.318 
7980 499 3 1.008 0.03 15.8671 9.20726 1.82166 -82.4976 -89.1574 51.004 -2 -2 1 -0.014878 -0.0137143 -0.0143757 -18.5141 -0.502994 14.5249 
2436 153 2 12.01 0.14 13.0947 13.6375 7.09875 111.459 62.8199 7.09875 2 1 0 1.34612e-05 0.00191759 -0.00365394 -34.1194 14.6418 18.6646 
1145 72 3 1.008 0.03 13.9013 9.85379 2.28519 13.9013 -39.3286 100.65 0 -1 2 -0.0106263 0.00288037 0.021278 9.34247 2.02798 9.05366 
1138 72 1 16 -0.4 12.5682 8.66483 1.29316 12.5682 -40.5175 99.6579 0 -1 2 0.00514831 -0.00156226 0.00294134 4.57736 4.7411 31.3668 
3270 205 2 12.01 0.11 15.9653 9.43947 5.46614 15.9653 58.6218 103.831 0 1 2 0.00969457 -0.00676686 0.00653543 26.7971 -43.8359 -34.0317 
3278 205 3 1.008 0.03 14.9162 9.65446 5.34469 14.9162 58.8368 103.709 0 1 2 0.0171876 0.0112468 0.0334591 -8.39605 1.7481 -1.18614 
2441 153 3 1.008 0.03 13.7162 13.2769 6.2728 112.081 62.4592 6.2728 2 1 0 -0.0176907 0.00244893 -0.00485554 -2.71097 -4.83854 3.54318 
8261 517 2 12.01 0.11 9.62258 11.4168 2.18292 107.987 11.4168 2.18292 2 0 0 0.00617551 0.00341031 0.00218411 -20.2688 3.47242 -59.2864 
8269 517 3 1.008 0.03 9.52154 10.3463 2.34113 107.886 10.3463 2.34113 2 0 0 0.00697093 -0.0102939 -0.0031367 -8.13343 1.31703 6.87078 
8267 517 3 1.008 0.03 8.68536 11.8667 1.73842 107.05 11.8667 1.73842 2 0 0 -0.00944774 -0.0178925 -0.0191649 17.8671 -20.6788 10.3092 
2448 153 3 1.008 0.03 11.7119 11.7571 5.85858 110.077 60.9394 5.85858 2 1 0 -0.0136412 0.0164875 0.00982564 -1.39468 2.98021 1.22402 
3279 205 3 1.008 0.03 16.5144 10.3338 5.66256 16.5144 59.5162 104.027 0 1 2 -0.0158976 -0.00177179 0.00819791 5.08334 12.3333 13.7409 
8263 517 3 1.008 0.03 9.26192 13.8346 2.76778 107.627 13.8346 2.76778 2 0 0 0.00901751 0.00380735 0.00516252 -7.10272 22.6359 -12.6575 
8268 517 3 1.008 0.03 10.3493 11.4658 1.31085 108.714 11.4658 1.31085 2 0 0 0.0113386 -0.0117987 -0.0150002 -7.80341 8.94834 34.9302 
8257 517 1 16 -0.4 9.80395 12.0961 3.39234 108.169 12.0961 3.39234 2 0 0 -0.000538598 -0.000172834 0.00426873 36.4926 17.6345 4.26703 
8264 517 3 1.008 0.03 10.2549 13.954 4.15351 108.62 13.954 4.15351 2 0 0 0.00667783 -0.00620675 0.00337826 -1.66384 7.14335 18.7079 
8260 517 2 12.01 0.14 11.4769 13.8097 2.40667 109.842 13.8097 2.40667 2 0 0 -0.00659777 0.0034828 -0.00198357 24.7477 11.8395 25.709 
8265 517 3 1.008 0.03 11.5362 13.5683 1.35875 109.901 13.5683 1.35875 2 0 0 0.0332019 -0.0181833 -0.0284809 -7.09093 -21.0618 -4.70971 
8272 517 3 1.008 0.03 14.6553 13.6621 3.20691 113.02 13.6621 3.20691 2 0 0 -0.000387886 -0.00226594 0.027197 2.62245 -1.51645 5.65061 
8259 517 2 12.01 0.14 10.1665 13.4859 3.20483 108.531 13.4859 3.20483 2 0 0 0.0102988 -0.00353414 0.00423441 2.85551 -33.1529 -9.74002 
8258 517 1 16 -0.4 12.6503 13.3459 3.17427 111.015 13.3459 3.17427 2 0 0 0.00460445 -0.00190883 -0.00390462 -5.27625 36.2965 -52.5044 
8266 517 3 1.008 0.03 11.569 14.9075 2.26231 109.934 14.9075 2.26231 2 0 0 0.0119233 0.00140286 0.000420878 -6.25361 -11.0196 13.8353 
8262 517 2 12.01 0.11 13.8356 13.9811 2.57723 112.2 13.9811 2.57723 2 0 0 -0.00934655 -0.00274794 -0.000554843 2.76847 5.98538 42.3028 
8271 517 3 1.008 0.03 13.9245 15.0953 2.62571 112.289 15.0953 2.62571 2 0 0 -0.0227605 -0.0027115 -0.000720392 -13.9295 -18.7765 -0.916429 
8270 517 3 1.008 0.03 14.1949 13.6562 1.62958 112.56 13.6562 1.62958 2 0 0 -0.0213197 0.018767 0.0150446 -9.82384 -9.05986 -20.4709 
1151 72 3 1.008 0.03 11.766 8.65959 3.30536 11.766 -40.5228 101.67 0 -1 2 -3.23337e-05 0.0054909 -0.0267957 5.4534 -7.59833 -20.028 
8831 552 3 1.008 0.03 15.5685 16.2847 4.58783 15.5685 114.649 102.953 0 2 2 -0.00127615 -0.0092018 0.00267709 3.02329 -27.1906 -1.76936 
1146 72 3 1.008 0.03 12.4225 10.59 2.00451 12.4225 -38.5923 100.369 0 -1 2 0.00351595 -0.0140723 0.0196736 -21.741 21.7173 6.80479 
2438 153 2 12.01 0.11 11.191 12.2884 6.66262 109.556 61.4707 6.66262 2 1 0 -0.00782493 0.00391386 0.00046523 -14.259 7.26209 -30.5243 
2447 153 3 1.008 0.03 10.1001 12.2575 6.39546 108.465 61.4398 6.39546 2 1 0 0.0104284 -0.00705181 0.000919894 21.2419 3.36974 8.86304 
2433 153 1 16 -0.4 14.7848 15.4235 7.32903 113.149 64.6059 7.32903 2 1 0 0.000491684 0.00484509 0.00380279 -18.2668 -24.5621 3.00603 
2440 153 3 1.008 0.03 12.9297 15.829 6.57112 111.294 65.0113 6.57112 2 1 0 -0.0105749 0.0202608 -0.0283697 1.59521 -13.7675 6.20921 
1144 72 3 1.008 0.03 14.2012 11.4221 0.561916 14.2012 -37.7602 98.9266 0 -1 2 -0.0121394 -0.0139716 -0.00258746 8.64563 14.8139 -2.21009 
9116 570 3 1.008 0.03 16.7629 15.9966 1.08255 164.31 -82.3681 50.2649 3 -2 1 0.0158179 0.0146898 -0.00332389 2.26683 3.95779 20.3793 
5758 360 3 1.008 0.03 9.57204 8.719 0.898967 -88.7927 8.719 -146.648 -2 0 -3 -0.0159276 -0.00766999 -0.00865984 1.3199 -4.36863 -7.20092 
2434 153 1 16 -0.4 11.6929 13.6242 6.76555 110.058 62.8066 6.76555 2 1 0 0.00108176 -0.00741168 0.000880672 10.0108 -12.8579 -1.03633 
8336 521 3 1.008 0.03 10.1011 16.548 5.9535 108.466 65.7304 55.1358 2 1 1 0.0322476 -0.0115251 -0.00243211 5.38606 20.277 6.79245 
816 51 3 1.008 0.03 19.5003 9.2931 5.8026 167.047 9.2931 -43.3798 3 0 -1 0.0153384 -0.000479393 -0.0194804 -14.8322 -17.2677 10.7061 
4952 310 3 1.008 0.03 22.4156 12.1029 1.55998 71.598 12.1029 1.55998 1 0 0 0.0120971 -0.019994 -0.00188458 17.2861 1.67416 -11.0822 