ITEM: TIMESTEP
2750000
ITEM: NUMBER OF ATOMS
10479
ITEM: BOX BOUNDS pp pp pp
4.0882558190751794e-01 4.9591174418091420e+01
4.0882558190751794e-01 4.9591174418091420e+01
4.0882558190751794e-01 4.9591174418091420e+01
ITEM: ATOMS id mol type mass q x y z xu yu zu ix iy iz vx vy vz fx fy fz 
10127 636 6 16 -0.53 3.68906 4.11144 2.32671 3.68906 4.11144 51.5091 0 0 1 0.00140669 -0.0101616 0.00594498 3.1576 3.74296 3.54899 
10461 672 9 24.305 2 5.04253 3.9557 3.88184 5.04253 3.9557 53.0642 0 0 1 -0.00219382 -0.00166474 -0.00776487 1.40404 -7.66822 7.71733 
7922 496 1 16 -0.4 4.52067 5.66776 4.60525 4.52067 5.66776 53.7876 0 0 1 0.000315343 0.000838896 0.00426606 16.4251 -11.286 -35.2873 
7924 496 2 12.01 0.14 3.89677 5.69454 5.84821 3.89677 5.69454 55.0306 0 0 1 -0.00424037 -0.00456058 -0.000695054 -50.8158 -18.2146 7.48053 
7929 496 3 1.008 0.03 3.33953 6.60708 6.0308 3.33953 6.60708 55.2131 0 0 1 -0.0164355 -0.00147815 0.0349082 1.40221 4.57642 1.51403 
2249 141 3 1.008 0.03 5.32114 2.34245 1.63012 5.32114 2.34245 50.8125 0 0 1 0.00337527 0.00540229 -0.00817041 -13.2794 16.2014 -14.5637 
2242 141 1 16 -0.4 5.46914 2.01306 3.61966 5.46914 2.01306 52.802 0 0 1 -0.00135248 0.00238092 -0.000112789 -8.7503 12.3452 19.9397 
7927 496 3 1.008 0.03 1.92789 4.88419 5.39108 1.92789 4.88419 54.5734 0 0 1 -0.00275754 -0.00913539 0.0137416 -0.101931 -5.31802 -2.90643 
7923 496 2 12.01 0.14 2.8626 4.53635 5.83601 2.8626 4.53635 55.0184 0 0 1 0.00606116 -0.00425012 0.00406001 33.0306 -1.69095 -9.00761 
7930 496 3 1.008 0.03 4.5458 5.48079 6.65825 4.5458 5.48079 55.8406 0 0 1 -0.0107028 0.00229275 0.0199823 18.5657 5.54391 12.9999 
7921 496 1 16 -0.4 3.53818 3.48211 5.06835 3.53818 3.48211 54.2507 0 0 1 -0.00808801 -0.00275355 0.00607325 -35.0222 -17.2318 7.70851 
7931 496 3 1.008 0.03 3.25069 1.43716 4.65406 3.25069 1.43716 53.8364 0 0 1 -0.00338666 -0.000975253 0.00985041 -3.57054 -1.43401 -6.95667 
7925 496 2 12.01 0.11 2.69849 2.25825 5.09691 2.69849 2.25825 54.2793 0 0 1 0.000546077 0.00216825 -0.00125694 34.4481 24.2968 4.47457 
961 61 1 16 -0.4 6.54547 3.99755 5.32127 6.54547 3.99755 54.5036 0 0 1 -0.00654933 -0.00377356 0.00244201 3.22844 -8.55229 17.4301 
7928 496 3 1.008 0.03 2.67877 4.2391 6.87701 2.67877 4.2391 56.0594 0 0 1 -0.00210956 -0.00558722 -0.00967613 -3.61762 -1.33486 -5.19865 
2246 141 2 12.01 0.11 5.85812 1.02101 4.60311 5.85812 1.02101 53.7855 0 0 1 -0.00271805 -0.000313408 -0.00443273 33.6819 -33.3482 -57.846 
7932 496 3 1.008 0.03 2.61136 1.93122 6.12967 2.61136 1.93122 55.312 0 0 1 0.0299032 0.00764251 0.00170984 -10.6499 1.10474 2.94405 
7933 496 3 1.008 0.03 1.73415 2.33181 4.58562 1.73415 2.33181 53.768 0 0 1 -0.0273516 0.0211686 -0.0124839 0.127701 3.64776 4.24096 
10126 636 6 16 -0.53 1.3794 4.99209 2.24124 1.3794 4.99209 51.4236 0 0 1 0.00692651 0.00196726 -0.0014705 4.17531 -16.4997 1.3171 
2244 141 2 12.01 0.14 5.38359 1.52367 2.28847 5.38359 1.52367 51.4708 0 0 1 0.00511433 0.00872078 0.000828205 26.659 -47.4524 -14.7407 
10125 636 5 32.06 1.02 2.53177 4.49677 1.52257 2.53177 4.49677 50.7049 0 0 1 -0.00424941 -0.000411316 -0.006187 -10.6443 -0.270513 16.2343 
965 61 2 12.01 0.11 6.67245 3.71567 6.75172 6.67245 3.71567 55.9341 0 0 1 0.00270121 -0.00352955 -0.000799928 -8.75094 -19.2774 -30.3774 
2255 141 3 1.008 0.03 5.57662 1.26308 5.56861 5.57662 1.26308 54.751 0 0 1 0.0256934 0.00978411 0.0333281 -12.3719 8.60052 34.7828 
7926 496 2 12.01 0.11 5.26859 6.84113 4.35013 5.26859 6.84113 53.5325 0 0 1 0.00619712 0.00332699 0.00493968 35.5975 -13.3159 21.2527 
7935 496 3 1.008 0.03 4.6747 7.69852 4.40073 4.6747 7.69852 53.5831 0 0 1 -0.00584718 0.0060386 0.0142467 -20.5073 25.4202 -7.00372 
962 61 1 16 -0.4 6.59605 4.3742 2.81073 6.59605 4.3742 51.9931 0 0 1 -0.00493028 0.00719245 -0.000783038 9.19585 -12.0058 14.5508 
7934 496 3 1.008 0.03 5.88867 6.85146 3.41521 5.88867 6.85146 52.5976 0 0 1 0.0314377 0.00083633 -0.00982722 -10.5135 -2.85261 19.8934 
7936 496 3 1.008 0.03 5.90093 6.93331 5.25229 5.90093 6.93331 54.4346 0 0 1 0.00432385 0.00379193 0.0231392 6.89163 3.32127 -16.0062 
966 61 2 12.01 0.11 6.80222 4.666 1.45675 6.80222 4.666 50.6391 0 0 1 0.00137273 -0.00453581 -0.00195107 4.4229 28.5643 -30.2336 
2241 141 1 16 -0.4 7.7965 1.77865 1.97392 7.7965 1.77865 51.1563 0 0 1 -0.0122313 0.00465386 0.00877966 -23.0111 -29.5081 10.9782 
963 61 2 12.01 0.14 7.88114 3.91224 4.8053 7.88114 3.91224 53.9876 0 0 1 -0.000865708 -0.00144441 0.00734616 -3.96695 -4.14111 -4.40642 
964 61 2 12.01 0.14 7.89502 4.50419 3.40406 7.89502 4.50419 52.5864 0 0 1 -0.00640109 0.00087867 0.00598638 10.987 6.67917 -5.39133 
974 61 3 1.008 0.03 5.88907 4.58213 0.893204 5.88907 4.58213 50.0756 0 0 1 -0.00159415 -0.00447478 -0.000509301 -7.39253 -2.36229 1.84676 
975 61 3 1.008 0.03 7.11044 5.72596 1.3992 7.11044 5.72596 50.5816 0 0 1 -0.00861047 -0.0033192 0.0135301 -3.87594 -8.20752 -4.42579 
976 61 3 1.008 0.03 7.54518 4.09986 0.868523 7.54518 4.09986 50.0509 0 0 1 -0.00670328 -0.0106642 -0.00499911 -3.26036 -2.02768 13.1374 
10120 636 6 16 -0.53 4.0835 7.05465 1.62428 4.0835 7.05465 50.8066 0 0 1 -0.00202362 0.00447999 -0.000519536 9.73177 -8.59906 -40.4852 
968 61 3 1.008 0.03 8.12542 2.84859 4.74049 8.12542 2.84859 53.9228 0 0 1 -0.0225638 0.00324312 0.0120138 4.05999 3.41087 0.712034 
3230 202 3 1.008 0.03 0.920766 0.47107 0.564249 148.468 49.6534 -48.6181 3 1 -1 -0.000429762 -0.00945569 -0.0247746 3.25988 6.46607 5.4794 
2254 141 3 1.008 0.03 6.9646 0.98379 4.57726 6.9646 0.98379 53.7596 0 0 1 0.000899146 0.0170551 0.0103296 -11.8788 1.59871 5.58805 
2243 141 2 12.01 0.14 6.71219 0.825294 1.78276 6.71219 0.825294 50.9651 0 0 1 0.00358957 -0.00672498 -0.00724724 -16.6484 36.5109 -16.4366 
10128 636 7 12.01 0.35 2.01696 2.88926 0.793196 2.01696 2.88926 49.9755 0 0 1 0.00125731 -0.001345 0.00100447 0.635897 -10.4026 34.6019 
10131 636 8 19 -0.16 2.11669 1.81243 1.60204 2.11669 1.81243 50.7844 0 0 1 -0.00707554 -0.001122 -0.00640323 18.3906 27.4455 -4.96234 
969 61 3 1.008 0.03 8.14798 5.57582 3.47821 8.14798 5.57582 52.6606 0 0 1 0.00414803 -0.00842064 0.0106081 -1.44001 -8.05535 -1.83908 
971 61 3 1.008 0.03 6.74553 4.61158 7.28688 6.74553 4.61158 56.4692 0 0 1 0.0198675 -0.0304867 0.00286814 10.5123 26.1443 14.2573 
10129 636 8 19 -0.16 0.774821 2.88146 0.491914 0.774821 2.88146 49.6743 0 0 1 -7.76011e-05 0.00678581 0.00239972 -37.7109 9.10241 -17.1101 
4005 251 2 12.01 0.11 8.43502 8.46685 0.731408 57.6174 57.6492 148.278 1 1 3 -0.00424324 -0.00394227 -0.00842389 -25.4481 19.4198 -18.0179 
2247 141 3 1.008 0.03 6.70583 0.475952 0.702859 6.70583 0.475952 49.8852 0 0 1 -0.0165813 0.0134301 -0.0421967 -8.48697 15.9689 30.6279 
2250 141 3 1.008 0.03 4.50697 0.84831 2.15181 4.50697 0.84831 51.3342 0 0 1 -0.00424368 0.0229948 0.00192268 13.9573 20.4448 5.38295 
973 61 3 1.008 0.03 7.51428 3.05586 6.99584 7.51428 3.05586 56.1782 0 0 1 -0.0198871 0.0214917 -0.0106092 -2.84252 3.27232 1.37525 
972 61 3 1.008 0.03 5.79314 3.24938 7.17198 5.79314 3.24938 56.3543 0 0 1 0.0064493 0.0131901 -0.00485752 -7.01703 -5.49319 -5.04383 
967 61 3 1.008 0.03 8.64123 4.39645 5.43956 8.64123 4.39645 54.6219 0 0 1 -0.00101209 -0.0151094 0.000951584 -4.57119 -1.97014 -4.06741 
4001 251 1 16 -0.4 9.03057 7.92742 1.87861 58.2129 57.1098 149.426 1 1 3 0.0067671 -0.00556379 0.0015595 10.7444 -12.9769 27.1716 
4002 251 1 16 -0.4 9.33642 7.4642 4.7913 58.5188 56.6466 152.338 1 1 3 -5.33097e-05 -0.0017519 -0.00397109 -13.9345 -11.4267 18.0551 
8560 535 3 1.008 0.03 11.0876 4.36949 4.13062 60.27 102.734 102.495 1 2 2 0.013645 0.000332039 0.00355514 11.9268 -6.65718 7.48889 
8550 535 2 12.01 0.11 11.3385 3.29693 4.07341 60.5208 101.662 102.438 1 2 2 -7.38335e-06 -0.010254 0.00453418 -25.8169 -13.5418 8.56807 
970 61 3 1.008 0.03 8.68329 4.02009 2.77322 8.68329 4.02009 51.9556 0 0 1 -0.00100648 0.0013795 0.0179864 -8.86466 7.81238 15.6342 
8558 535 3 1.008 0.03 12.3466 3.01145 4.17641 61.5289 101.376 102.541 1 2 2 -0.00541114 0.0147732 -0.0184568 31.1431 13.3196 -5.74867 
8559 535 3 1.008 0.03 10.9977 2.98653 3.11201 60.1801 101.351 101.477 1 2 2 -0.010189 -0.0200901 0.0159172 -4.31249 -8.45479 -13.2007 
8546 535 1 16 -0.4 10.7383 2.52739 5.10295 59.9206 100.892 103.468 1 2 2 -0.00440003 -0.00851981 -0.00681014 -18.0923 2.65699 3.98679 
8548 535 2 12.01 0.14 10.9147 1.09655 5.10761 60.0971 99.4612 103.472 1 2 2 0.00431544 -0.00035979 0.00933559 -11.5545 11.1749 -34.2938 
2252 141 3 1.008 0.03 9.82261 1.67308 1.55076 9.82261 1.67308 50.7331 0 0 1 -0.0088961 0.00676184 0.00238443 17.4284 22.9933 4.44682 
2412 151 3 1.008 0.03 10.9623 5.32512 1.75421 158.509 152.872 100.119 3 3 2 0.024758 0.0033486 0.0127232 -9.12232 -1.98815 37.3671 
8104 507 3 1.008 0.03 15.6865 6.71312 5.05625 64.8688 6.71312 103.421 1 0 2 0.022235 -0.0131576 -0.00113916 3.84317 1.49831 -10.5302 
4009 251 3 1.008 0.03 10.9006 7.49581 3.67254 60.083 56.6782 151.22 1 1 3 -0.00338258 -0.00532694 0.0253716 9.57671 -3.30214 -16.9213 
8103 507 3 1.008 0.03 14.4141 7.60148 4.30277 63.5965 7.60148 102.667 1 0 2 0.00593856 0.00883538 -0.037278 -10.2536 3.46029 -5.16798 
8099 507 2 12.01 0.14 15.2692 7.71373 4.94438 64.4516 7.71373 103.309 1 0 2 -0.0120768 -0.00275023 0.00110405 15.8832 3.13578 6.31431 
9445 591 2 12.01 0.11 14.1682 1.84866 7.0887 14.1682 51.031 56.2711 0 1 1 -0.00182792 0.00108878 0.00045232 30.7363 -2.07728 38.1725 
2245 141 2 12.01 0.11 8.89277 1.26851 1.27974 8.89277 1.26851 50.4621 0 0 1 0.00837256 0.00606387 0.00114246 -14.7011 -8.10238 -15.8861 
8098 507 1 16 -0.4 13.6213 7.44736 6.84272 62.8036 7.44736 105.207 1 0 2 0.00611701 0.00618732 -0.00137204 53.5253 14.6072 -42.921 
8553 535 3 1.008 0.03 11.9706 0.925961 4.88541 61.1529 99.2907 103.25 1 2 2 0.00207859 -0.0284938 0.00654986 -2.50958 -7.73759 5.99537 
8554 535 3 1.008 0.03 10.3286 0.567864 4.30501 59.5109 98.9326 102.67 1 2 2 -0.00498025 -0.0103009 0.00797786 10.1004 14.4322 16.7967 
8545 535 1 16 -0.4 9.10045 0.759458 6.66918 58.2828 99.1242 105.034 1 2 2 0.00259311 -0.00625107 -0.00381411 -9.84947 -10.1198 -18.0584 
4014 251 3 1.008 0.03 11.0092 6.80653 5.91039 60.1915 55.9889 153.457 1 1 3 0.00623853 0.00473796 -0.00310904 -11.7806 7.98678 -1.24462 
4004 251 2 12.01 0.14 10.1868 8.21668 4.01598 59.3691 57.399 151.563 1 1 3 0.00114026 -0.0010274 0.000157966 29.7494 16.5166 9.3698 
4006 251 2 12.01 0.11 9.96619 7.17796 6.01517 59.1485 56.3603 153.562 1 1 3 -0.00595629 0.000213926 -0.00688753 16.5066 40.6545 42.6682 
8100 507 2 12.01 0.14 14.8958 8.09021 6.35247 64.0782 8.09021 104.717 1 0 2 -0.000595225 0.00275558 0.00130906 -49.033 -31.9502 81.1074 
8105 507 3 1.008 0.03 15.6529 7.89501 7.16895 64.8352 7.89501 105.534 1 0 2 0.00386583 0.0159665 -0.00523196 -7.73451 1.88795 -31.5454 
1097 69 3 1.008 0.03 16.5987 4.02509 5.57678 65.7811 4.02509 -92.7879 1 0 -2 0.00839278 0.0119623 0.0461655 -10.5608 -0.801407 -0.256677 
2413 151 3 1.008 0.03 12.2287 5.84582 0.699756 159.776 153.393 99.0645 3 3 2 0.00328549 -0.00552147 -0.0139484 10.3188 -5.03321 2.30955 
9643 604 8 19 -0.16 16.5454 1.43811 3.1435 16.5454 50.6205 3.1435 0 1 0 -0.0028082 -0.00478859 -0.00160635 -1.26986 -14.572 19.0779 
9644 604 8 19 -0.16 16.3085 2.60126 1.50783 16.3085 51.7836 1.50783 0 1 0 0.00421554 0.000764013 -0.00313065 -10.0563 21.2571 -15.0776 
9453 591 3 1.008 0.03 13.4137 1.68375 6.39137 13.4137 50.8661 55.5737 0 1 1 0.00725833 0.0041033 0.00500397 -29.1069 -10.6207 -12.1889 
142 9 3 1.008 0.03 11.6362 3.9289 7.1825 -37.5461 102.294 -41.9998 -1 2 -1 0.0130524 0.00461316 -0.00351941 1.62761 6.69145 -16.614 
8107 507 3 1.008 0.03 16.0245 8.03437 2.52959 65.2068 8.03437 100.894 1 0 2 -0.00815708 -0.00112485 0.0100261 17.3495 -4.12669 5.73431 
9452 591 3 1.008 0.03 15.0757 1.48079 6.64339 15.0757 50.6631 55.8257 0 1 1 -0.0165205 -0.0196678 -0.00421387 8.03768 -2.37729 -6.58742 
9641 604 7 12.01 0.35 16.7254 1.42422 1.85304 16.7254 50.6066 1.85304 0 1 0 -0.00271978 0.00365824 0.00364182 1.37153 6.48997 9.59065 
9451 591 3 1.008 0.03 14.2875 2.90735 7.19989 14.2875 52.0897 56.3822 0 1 1 0.0122886 0.0119402 -0.0125005 -1.69818 14.4298 -1.81175 
8551 535 3 1.008 0.03 10.994 1.36371 7.17051 60.1763 99.7284 105.535 1 2 2 0.0139191 8.00594e-05 -0.0169276 -2.53031 -16.3674 2.69512 
4016 251 3 1.008 0.03 9.47096 6.39144 6.57322 58.6533 55.5738 154.12 1 1 3 0.0124947 0.00325574 0.00759892 -8.71144 0.371006 0.725449 
2407 151 3 1.008 0.03 12.3013 3.08803 0.949295 159.848 150.635 99.314 3 3 2 0.024592 0.0262882 -0.0445341 5.44833 8.09341 -9.27641 
8547 535 2 12.01 0.14 10.4936 0.642327 6.49688 59.6759 99.007 104.862 1 2 2 0.00352781 -0.00483955 0.000131836 17.717 14.3875 5.38249 
2405 151 2 12.01 0.11 11.2082 5.50224 0.76593 158.755 153.049 99.1306 3 3 2 0.0127589 0.00453018 0.0037367 13.5288 33.3853 -32.536 
4015 251 3 1.008 0.03 9.9534 8.16357 6.65792 59.1357 57.3459 154.205 1 1 3 0.00771908 -0.0265687 -0.0156994 3.72338 -51.0251 -28.1961 
1096 69 3 1.008 0.03 17.5453 1.9369 5.14273 66.7277 1.9369 -93.222 1 0 -2 0.026999 -0.0113408 0.014427 6.19881 5.77426 -3.82576 
1095 69 3 1.008 0.03 18.1179 3.21445 3.95548 67.3002 3.21445 -94.4092 1 0 -2 -0.00331806 0.00791933 -0.00652463 13.202 -24.1103 35.0782 
5274 330 3 1.008 0.03 24.432 5.67521 4.50595 73.6143 -43.5071 -44.6764 1 -1 -1 -0.0132136 -0.0033371 0.0167814 -6.98019 6.97708 4.38037 
1091 69 2 12.01 0.14 18.2125 2.80937 5.03093 67.3948 2.80937 -93.3338 1 0 -2 0.00150879 -0.00150684 0.00684608 38.6717 -17.9367 -31.0224 
1092 69 2 12.01 0.14 17.6244 3.8712 5.86547 66.8067 3.8712 -92.4992 1 0 -2 -0.000914718 0.000680692 -0.00336321 -10.3364 19.6761 -6.22159 
8109 507 3 1.008 0.03 17.3229 7.0971 3.37299 66.5053 7.0971 101.738 1 0 2 0.00384845 0.0251158 -0.00295313 -5.97853 11.6983 9.57613 
4984 312 3 1.008 0.03 24.4838 4.12368 2.53929 24.4838 -45.0587 51.7216 0 -1 1 0.00818263 -0.00343199 0.028277 -6.79206 -13.0011 -4.48617 
1090 69 1 16 -0.4 18.2865 5.06366 5.60233 67.4688 5.06366 -92.7624 1 0 -2 -0.00115031 -0.00649582 0.00174724 8.75651 25.4852 18.3914 
5271 330 3 1.008 0.03 22.113 5.74023 5.47186 71.2953 -43.4421 -43.7105 1 -1 -1 -0.00538267 -0.0143237 0.0160018 -15.2426 -6.82205 -14.8861 
1100 69 3 1.008 0.03 19.5921 0.598076 4.47312 68.7745 0.598076 -93.8916 1 0 -2 -0.0267021 0.0247855 -0.00511439 2.42334 11.3391 4.98632 
5268 330 2 12.01 0.14 24.1105 6.50418 5.15708 73.2929 -42.6782 -44.0253 1 -1 -1 0.00315888 -0.00330754 0.000549691 10.424 -13.3602 8.50774 
5267 330 2 12.01 0.14 22.9253 6.08562 6.05657 72.1077 -43.0967 -43.1258 1 -1 -1 0.00116664 -0.00410061 -0.00608111 10.9136 22.4576 5.36289 
1089 69 1 16 -0.4 19.6042 2.46424 5.49268 68.7866 2.46424 -92.872 1 0 -2 0.00114048 -0.00834505 -0.00324758 -57.6875 -4.65224 -17.4028 
1093 69 2 12.01 0.11 19.7949 1.03792 5.46595 68.9773 1.03792 -92.8987 1 0 -2 -0.000385806 0.000291916 0.00860274 -7.78605 -10.3616 -10.8141 
1099 69 3 1.008 0.03 19.127 0.424037 6.12972 68.3094 0.424037 -92.235 1 0 -2 0.0164043 0.00321784 0.00146886 17.2186 19.3149 -3.53115 
4981 312 2 12.01 0.11 22.9843 3.06483 4.279 22.9843 -46.1175 53.4613 0 -1 1 -0.00142459 -0.00751879 -0.00186882 -26.8153 36.4196 -31.1557 
1094 69 2 12.01 0.11 18.0237 6.0676 6.61205 67.2061 6.0676 -91.7526 1 0 -2 0.00143016 0.00802097 -0.000988358 10.6146 -9.23107 1.70791 
4987 312 3 1.008 0.03 22.8304 4.15001 4.01271 22.8304 -45.0323 53.1951 0 -1 1 0.0115919 0.0245391 -0.00859872 8.52642 -25.0427 9.08681 
4979 312 2 12.01 0.14 24.8645 3.12078 2.79651 24.8645 -46.0616 51.9789 0 -1 1 0.0114416 -0.00895866 0.00627412 0.0382336 16.5819 19.4864 
5266 330 1 16 -0.4 23.6696 7.59016 4.39485 72.852 -41.5922 -44.7875 1 -1 -1 0.00220846 9.83108e-06 -0.00842011 -24.6207 -2.70945 14.7489 
1830 115 2 12.01 0.11 20.2591 8.45186 4.40991 -28.9232 8.45186 -143.137 -1 0 -3 0.00111659 -0.00141673 -0.00542729 -30.5914 38.2578 -19.6715 
4989 312 3 1.008 0.03 22.8058 2.99011 5.3338 22.8058 -46.1922 54.5162 0 -1 1 -0.0133355 -0.029855 -0.00591475 -8.24372 -6.6639 9.43755 
4983 312 3 1.008 0.03 24.6618 2.39702 1.989 24.6618 -46.7853 51.1713 0 -1 1 0.0130098 0.0089688 -0.0380151 6.32688 7.07042 5.09682 
4977 312 1 16 -0.4 24.2961 2.63941 4.02707 24.2961 -46.5429 53.2094 0 -1 1 0.00457333 -0.00388894 0.00673684 17.1056 -2.44493 -10.7825 
1101 69 3 1.008 0.03 20.8566 0.846535 5.63321 70.039 0.846535 -92.7315 1 0 -2 -0.00411843 -0.00294552 -0.0061705 -6.16353 -2.37239 3.89663 
1840 115 3 1.008 0.03 20.4639 7.39382 4.57308 -28.7184 7.39382 -142.974 -1 0 -3 -0.0078353 -0.0334864 -0.0316804 -3.05956 -1.25398 -4.8574 
4988 312 3 1.008 0.03 22.1851 2.58733 3.66781 22.1851 -46.595 52.8502 0 -1 1 -0.00192972 0.0017361 -0.00414708 15.594 -4.55598 12.1566 
2112 132 3 1.008 0.03 22.3161 3.42781 0.639703 -26.8662 -94.9369 49.8221 -1 -2 1 -0.00694283 0.0178936 -0.021275 5.51084 0.888422 -11.6978 
5270 330 2 12.01 0.11 24.5967 8.07723 3.5166 73.7791 -41.1051 -45.6658 1 -1 -1 0.00172655 -0.00357295 0.00352462 39.1739 -35.9811 -31.8995 
2110 132 3 1.008 0.03 23.3091 4.85563 0.429483 -25.8732 -93.5091 49.6118 -1 -2 1 0.0195733 0.0109388 -0.00854569 3.44773 -13.0039 -3.88863 
8101 507 2 12.01 0.11 16.8354 8.09065 3.29326 66.0177 8.09065 101.658 1 0 2 0.000406823 0.00109786 0.00157788 -23.0028 27.1117 -10.9996 
5279 330 3 1.008 0.03 24.8221 7.41301 2.61851 74.0044 -41.7693 -46.5638 1 -1 -1 -0.00344609 -0.010308 -0.00932609 -7.11839 14.2428 29.823 
1102 69 3 1.008 0.03 18.628 6.94161 6.36558 67.8104 6.94161 -91.9991 1 0 -2 0.0055814 -0.0110851 -0.00638444 -12.069 1.92098 -2.57627 
9642 604 8 19 -0.16 18.0209 1.45476 1.6545 18.0209 50.6371 1.6545 0 1 0 -0.00805857 0.00133778 -0.000958709 11.8546 -11.5927 -6.45563 
1098 69 3 1.008 0.03 17.6299 3.64371 6.88599 66.8123 3.64371 -91.4787 1 0 -2 0.0136147 -0.00927647 0.00746323 3.12652 -11.2208 28.9702 
5272 330 3 1.008 0.03 22.5068 6.87406 6.70127 71.6891 -42.3083 -42.4811 1 -1 -1 0.0161286 -0.0475183 0.0251401 8.71591 3.89787 -10.4975 
5265 330 1 16 -0.4 23.3705 5.09548 6.90372 72.5529 -44.0869 -42.2786 1 -1 -1 0.00455551 0.00164597 -5.44965e-05 9.11935 -16.5616 -1.0653 
5277 330 3 1.008 0.03 21.416 4.1555 7.1276 70.5983 -45.0268 -42.0547 1 -1 -1 0.0196571 0.0242146 -0.0155888 12.6881 7.238 -9.51159 
1103 69 3 1.008 0.03 16.9505 6.25854 6.69937 66.1328 6.25854 -91.6653 1 0 -2 0.00199255 -0.0115573 -0.0104589 8.62234 3.56798 -2.42423 
2559 160 3 1.008 0.03 17.7378 7.66606 0.766911 17.7378 56.8484 -48.4154 0 1 -1 -0.00463427 -0.0347685 -0.00603826 5.77851 -8.0114 -8.32837 
4487 281 3 1.008 0.03 1.16715 13.2325 4.15574 99.5318 -35.9498 151.703 2 -1 3 0.0131231 -0.0076266 0.0231059 -6.97253 8.22864 -11.3519 
10064 632 8 19 -0.16 3.26115 15.2548 1.68251 52.4435 15.2548 50.8649 1 0 1 8.22183e-05 -0.00222545 -0.000631422 -18.1048 -51.3286 -6.26121 
4488 281 3 1.008 0.03 1.91495 13.1878 5.6809 100.28 -35.9945 153.228 2 -1 3 -0.0195847 0.0134704 -0.00270979 6.62857 -3.63716 -0.0666097 
4013 251 3 1.008 0.03 7.35409 8.70272 0.699803 56.5364 57.8851 148.247 1 1 3 0.0137676 -0.00695877 -0.0325012 11.0572 1.48231 22.1682 
9613 602 8 19 -0.16 7.23299 8.95177 6.60474 56.4153 58.1341 55.7871 1 1 1 0.000391229 -0.00719724 -0.00347422 -5.53507 -0.822713 -19.2619 
4496 281 3 1.008 0.03 1.85438 8.73259 3.41159 100.219 -40.4498 150.959 2 -1 3 -0.0090996 -0.0187549 -0.00328804 -4.70579 7.37508 -2.03986 
4008 251 3 1.008 0.03 8.40408 9.2081 3.2702 57.5864 58.3905 150.817 1 1 3 -0.0177332 -0.0127483 -0.00589354 -6.01854 13.5653 11.0558 
2885 181 2 12.01 0.11 6.70199 12.2153 1.24099 6.70199 12.2153 -47.9414 0 0 -1 -0.00203901 -0.0011452 -0.00403817 -33.6403 15.3725 29.8034 
6764 423 3 1.008 0.03 7.61243 15.9235 6.72018 7.61243 15.9235 -91.6445 0 0 -2 0.00138299 -0.0191043 -0.00337096 -11.8855 1.4853 3.59521 
6757 423 2 12.01 0.11 7.97075 16.337 5.78839 7.97075 16.337 -92.5763 0 0 -2 0.0047549 -0.00737231 0.00720118 11.611 28.9918 -9.79671 
2891 181 3 1.008 0.03 6.28884 12.7365 2.13006 6.28884 12.7365 -47.0523 0 0 -1 -0.00535042 -0.0272706 0.00430073 11.3167 -14.4825 -3.34614 
9618 602 7 12.01 0.35 5.56185 13.3182 5.36735 54.7442 62.5006 54.5497 1 1 1 0.00542949 0.00255297 0.000855097 -23.4328 2.40831 36.55 
4495 281 3 1.008 0.03 3.31902 9.66126 3.17614 101.684 -39.5211 150.723 2 -1 3 -0.000834609 0.0132715 -0.0333953 -18.1118 -2.25781 -10.9142 
4482 281 1 16 -0.4 1.6622 10.8212 3.33272 100.027 -38.3611 150.88 2 -1 3 -0.00386663 0.0022632 5.93261e-05 -29.3869 16.2931 -12.1876 
4484 281 2 12.01 0.14 2.18332 11.3602 4.51035 100.548 -37.8222 152.057 2 -1 3 0.00393348 -0.0036007 -0.00459582 12.0088 -11.5932 56.3012 
4489 281 3 1.008 0.03 3.223 11.6305 4.36555 101.588 -37.5518 151.913 2 -1 3 -0.0222739 0.060182 -0.0239627 -5.99632 3.43288 -13.8844 
4486 281 2 12.01 0.11 2.22963 9.63578 2.91159 100.594 -39.5466 150.459 2 -1 3 0.000744992 -0.00278289 0.0054023 50.6245 -19.8188 43.3589 
4490 281 3 1.008 0.03 2.39238 10.6269 5.34648 100.757 -38.5555 152.894 2 -1 3 0.0123036 -0.0108048 -0.0126685 -21.9464 12.2364 -21.0715 
9620 602 8 19 -0.16 5.83967 14.611 5.33662 55.022 63.7933 54.519 1 1 1 0.00119152 0.000347241 -0.00421428 1.33367 -1.62889 1.30742 
9621 602 8 19 -0.16 6.36596 12.718 4.5289 55.5483 61.9004 53.7113 1 1 1 0.00345353 0.00441206 -0.00375337 8.08792 -5.07205 -11.7585 
6763 423 3 1.008 0.03 7.86015 15.5945 5.02855 7.86015 15.5945 -93.3361 0 0 -2 -0.0055449 0.01045 0.0123987 5.76625 -13.9005 -8.06273 
9607 602 4 14.01 -0.66 5.14355 11.0782 6.81519 54.3259 60.2606 55.9975 1 1 1 0.00457013 -0.0103272 0.0049095 15.4422 49.3908 -21.5292 
2893 181 3 1.008 0.03 7.30327 11.3525 1.48801 7.30327 11.3525 -47.6943 0 0 -1 0.022231 -0.00175043 0.0130645 -12.5407 -15.6311 5.26279 
2881 181 1 16 -0.4 7.63009 13.0778 0.762486 7.63009 13.0778 -48.4199 0 0 -1 -0.0013611 0.000565569 0.00201955 12.3242 43.4376 -35.6567 
9610 602 6 16 -0.53 4.25103 8.79288 6.96488 53.4334 57.9752 56.1472 1 1 1 0.00385837 -0.00065709 0.000351849 -2.41242 18.1107 28.0303 
10061 632 7 12.01 0.35 3.34763 16.5122 1.79782 52.53 16.5122 50.9802 1 0 1 0.00726538 -0.000287252 0.00729591 1.47567 58.7465 19.4067 
4494 281 3 1.008 0.03 2.16598 9.5309 1.87824 100.531 -39.6514 149.425 2 -1 3 -0.00989334 0.0004213 -0.00977372 -5.86089 -2.94774 -30.4249 
10060 632 6 16 -0.53 3.60355 16.3776 4.36625 52.7859 16.3776 53.5486 1 0 1 0.00854367 -0.00510909 -0.00322777 -14.0541 14.3883 -2.69612 
9619 602 8 19 -0.16 4.32825 13.1767 4.89667 53.5106 62.3591 54.079 1 1 1 -0.00533478 -0.00718405 0.000295981 10.481 10.1988 0.706167 
4483 281 2 12.01 0.14 1.32778 12.5836 4.99019 99.6925 -36.5987 152.537 2 -1 3 0.00405034 0.00547136 0.000253555 18.3008 -3.58781 2.58831 
10059 632 6 16 -0.53 5.54391 16.2775 2.96624 54.7263 16.2775 52.1486 1 0 1 -0.00143571 0.00379926 -0.0043803 57.3199 -20.3151 -18.0068 
9615 602 5 32.06 1.02 5.69563 12.5837 7.08994 54.878 61.7661 56.2723 1 1 1 -0.00253979 -0.00132241 -0.00199876 -8.35874 -57.1069 2.3514 
3784 237 3 1.008 0.03 1.31494 12.5141 0.483454 1.31494 61.6965 0.483454 0 1 0 0.00985689 0.019833 -0.00772945 11.5783 1.89982 12.9289 
2892 181 3 1.008 0.03 5.77469 12.0907 0.666891 5.77469 12.0907 -48.5155 0 0 -1 -0.0126119 -0.0194307 0.0197987 12.6728 -13.1804 -9.26345 
9616 602 6 16 -0.53 7.10995 12.572 7.35118 56.2923 61.7543 56.5335 1 1 1 0.00169243 0.00102146 -0.00212984 6.62281 6.35284 0.877601 
7808 488 3 1.008 0.03 14.7854 12.1348 0.492878 63.9677 12.1348 0.492878 1 0 0 0.00935879 -0.0087372 -0.00491675 -36.5666 -20.5322 22.2903 
4003 251 2 12.01 0.14 9.35924 8.85396 2.9372 58.5416 58.0363 150.484 1 1 3 0.00349296 -0.00172799 -0.00237639 -15.5582 -20.5124 -46.5754 
4007 251 3 1.008 0.03 9.93028 9.62052 2.45845 59.1126 58.8029 150.005 1 1 3 0.0214318 -0.020324 -0.0165008 5.38391 14.4185 -1.54182 
7309 457 3 1.008 0.03 8.61033 12.1282 5.031 8.61033 110.493 5.031 0 2 0 0.00484175 -0.016254 -0.00130142 6.58053 -5.82206 -2.9222 
8097 507 1 16 -0.4 16.176 8.70532 4.42569 65.3583 8.70532 102.79 1 0 2 -0.00707986 -0.00553278 0.00472143 5.25405 -46.0972 -7.97463 
7303 457 3 1.008 0.03 9.15908 13.2942 2.74731 9.15908 111.659 2.74731 0 2 0 -0.0127159 -0.0171949 0.000180622 29.6616 -12.7008 6.73587 
7305 457 3 1.008 0.03 10.9136 11.9745 1.29587 10.9136 110.339 1.29587 0 2 0 -0.0263385 0.00541259 -0.00128688 5.80405 18.8756 12.6059 
7300 457 2 12.01 0.14 11.1184 12.938 1.83414 11.1184 111.303 1.83414 0 2 0 -0.00421915 -0.0037958 0.00680617 18.9586 11.0086 -36.0863 
4010 251 3 1.008 0.03 10.8242 8.97501 4.55956 60.0065 58.1574 152.107 1 1 3 -0.0182266 -0.00796736 -0.0193838 -21.5584 -14.7592 -8.25865 
7304 457 3 1.008 0.03 10.5106 13.9047 3.67676 10.5106 112.269 3.67676 0 2 0 0.0128443 -0.0192767 0.0170906 -0.0110414 -24.404 -3.42307 
7299 457 2 12.01 0.14 10.2181 13.0181 3.05463 10.2181 111.383 3.05463 0 2 0 -0.0096232 0.00569794 0.00413013 -36.0993 20.4244 27.5492 
7307 457 3 1.008 0.03 9.32123 10.5424 5.16228 9.32123 108.907 5.16228 0 2 0 -0.00806846 0.00895557 0.0105404 -5.30782 -22.9009 6.9791 
7310 457 3 1.008 0.03 12.8287 11.1249 2.47801 12.8287 109.49 2.47801 0 2 0 -0.000158107 0.0120806 -0.00112518 -10.3687 -9.76232 -12.4879 
7308 457 3 1.008 0.03 10.197 11.9291 5.78206 10.197 110.294 5.78206 0 2 0 -0.0156253 0.00263676 -0.012612 -3.81471 -5.79936 -7.34085 
7302 457 2 12.01 0.11 13.1145 12.0953 2.82076 13.1145 110.46 2.82076 0 2 0 -0.0133448 0.00352583 -0.0052575 17.8403 -10.2882 -11.2252 
7312 457 3 1.008 0.03 12.8797 12.0388 3.86143 12.8797 110.403 3.86143 0 2 0 -0.0133779 0.0234479 0.00659005 -3.88395 12.1858 15.3607 
10151 638 7 12.01 0.35 12.828 16.5564 3.24452 12.828 16.5564 52.4269 0 0 1 -0.00370094 0.00719397 0.00569782 32.2054 -11.4721 44.2791 
10148 638 5 32.06 1.02 14.4437 15.7771 3.71572 14.4437 15.7771 52.8981 0 0 1 0.00484733 -0.000808409 0.00462136 2.12044 73.6079 23.3713 
10150 638 6 16 -0.53 14.1351 14.698 4.6182 14.1351 14.698 53.8005 0 0 1 0.00661219 -0.00518212 -0.0048089 0.0360959 -3.82193 -6.37952 
7311 457 3 1.008 0.03 14.1944 12.049 2.6751 14.1944 110.414 2.6751 0 2 0 -0.000716492 -0.011942 0.00750974 -6.15984 6.00044 7.58907 
10149 638 6 16 -0.53 15.0217 15.4804 2.4198 15.0217 15.4804 51.6022 0 0 1 0.00146367 0.000600481 -0.00117695 7.65725 -18.5607 -5.96504 
7297 457 1 16 -0.4 10.1862 11.7147 3.70239 10.1862 110.079 3.70239 0 2 0 -0.00580156 0.00258281 0.000808716 6.00858 5.01097 -3.56481 
7301 457 2 12.01 0.11 9.54813 11.5519 4.97784 9.54813 109.917 4.97784 0 2 0 -0.0100632 -0.00296215 -0.00489445 3.32291 53.4311 -8.62485 
7298 457 1 16 -0.4 12.5545 13.1623 2.06914 12.5545 111.527 2.06914 0 2 0 -0.00196553 -0.002647 -0.0015914 -34.2808 -13.1831 2.08263 
10152 638 8 19 -0.16 12.1575 15.8673 2.37556 12.1575 15.8673 51.5579 0 0 1 0.000992136 -0.00367621 5.0848e-05 -16.9523 -12.5682 -13.5354 
8106 507 3 1.008 0.03 14.7161 9.12293 6.46518 63.8984 9.12293 104.83 1 0 2 -0.00677306 -0.0380075 -0.0224974 -2.76091 25.5636 -6.66177 
6753 423 1 16 -0.4 9.3542 16.693 5.99927 9.3542 16.693 -92.3654 0 0 -2 -0.00555526 0.0076493 0.00119955 -20.7203 30.708 -17.3286 
10156 638 6 16 -0.53 14.5401 16.6867 6.84225 14.5401 16.6867 56.0246 0 0 1 -0.00349355 -6.06622e-05 -0.00572644 0.139312 -11.9117 3.84371 
10454 665 9 24.305 2 16.3247 15.4042 0.826931 65.507 15.4042 0.826931 1 0 0 -0.00174326 -0.00653042 0.00317545 -9.13749 -8.58445 6.11568 
7794 488 1 16 -0.4 16.2709 13.4582 0.675586 65.4533 13.4582 0.675586 1 0 0 0.00205315 0.00460502 0.0032428 25.128 24.8461 21.1643 
7802 488 3 1.008 0.03 16.1225 12.7483 2.57954 65.3048 12.7483 2.57954 1 0 0 -0.01231 0.0441033 -0.00571391 25.413 11.669 3.48801 
1835 115 3 1.008 0.03 15.896 12.1177 6.95534 -33.2864 12.1177 -140.592 -1 0 -3 -0.00558503 0.00149453 0.0143297 -17.8173 -3.22253 12.3473 
1829 115 2 12.01 0.11 16.7681 12.7314 7.01058 -32.4143 12.7314 -140.536 -1 0 -3 0.00082532 -0.0021861 0.00974187 50.6207 25.6146 -64.4539 
1837 115 3 1.008 0.03 16.627 13.7584 6.53511 -32.5554 13.7584 -141.012 -1 0 -3 -0.023385 -0.0156765 0.020913 -5.76244 -25.9798 27.4869 
10154 638 8 19 -0.16 12.0818 16.7758 4.32742 12.0818 16.7758 53.5098 0 0 1 -0.00197949 -0.00300739 0.00199933 -0.614802 -3.51765 -14.0687 
7306 457 3 1.008 0.03 10.8333 13.7692 1.12634 10.8333 112.134 1.12634 0 2 0 -0.00281296 0.00474291 -0.0209539 3.45567 -20.3547 16.1716 
2507 157 3 1.008 0.03 10.6874 13.473 7.20764 10.6874 13.473 7.20764 0 0 0 0.0141351 0.00219781 0.00017633 -7.2 11.9257 18.4941 
7147 447 3 1.008 0.03 23.3543 16.2589 5.56279 -75.0104 16.2589 -43.6196 -2 0 -1 -0.00782635 0.0161026 0.0210398 8.54334 -8.09023 11.1053 
347 22 3 1.008 0.03 22.65 10.1132 6.83104 71.8324 10.1132 154.378 1 0 3 -0.00135299 -0.00225727 0.0205925 -33.9405 16.7548 -21.8211 
1826 115 1 16 -0.4 19.3423 8.99233 5.38768 -29.8401 8.99233 -142.159 -1 0 -3 0.00521294 -0.000404966 -0.00219742 5.90365 -2.94505 -11.6084 
1838 115 3 1.008 0.03 19.7764 8.71463 3.41103 -29.406 8.71463 -144.136 -1 0 -3 0.0133365 0.00337387 0.0268038 18.7909 -25.0615 25.5151 
7144 447 3 1.008 0.03 23.2995 15.5008 3.47639 -75.0652 15.5008 -45.706 -2 0 -1 -0.0210828 -0.037877 0.00518075 -0.230636 14.6691 -10.9011 
8108 507 3 1.008 0.03 17.557 8.83585 2.93216 66.7393 8.83585 101.297 1 0 2 -0.0160318 -0.0136673 -0.00928367 -3.60593 -12.1672 -3.66516 
1839 115 3 1.008 0.03 21.1976 9.00502 4.40098 -27.9847 9.00502 -143.146 -1 0 -3 0.00441387 0.0260609 -0.00170505 2.24523 -1.97981 4.69436 
7148 447 3 1.008 0.03 22.6527 14.9397 6.47432 -75.712 14.9397 -42.708 -2 0 -1 -0.0115027 -0.00593628 0.0221507 -5.8464 -12.3295 -0.567054 
10115 635 8 19 -0.16 21.9528 10.4708 1.95299 120.317 59.6532 1.95299 2 1 0 -0.00340455 -9.53206e-05 0.00143726 -1.52086 6.73799 -8.32357 
10113 635 7 12.01 0.35 20.786 10.675 1.34521 119.151 59.8574 1.34521 2 1 0 -0.00430264 -0.00245451 0.00227061 7.57196 -5.69862 18.5586 
7137 447 1 16 -0.4 24.1505 14.4112 4.95584 -74.2142 14.4112 -44.2265 -2 0 -1 -0.00479622 0.000437317 0.00110874 -22.8778 14.7226 26.6072 
10116 635 8 19 -0.16 20.0876 11.4746 2.12589 118.452 60.657 2.12589 2 1 0 -0.00110211 0.00441929 0.00451419 -2.60772 9.69764 0.517661 
1832 115 3 1.008 0.03 16.9612 10.3142 6.15425 -32.2211 10.3142 -141.393 -1 0 -3 -0.042717 -0.0154377 0.00261246 3.65322 -5.70944 -0.84618 