ITEM: TIMESTEP
900000
ITEM: NUMBER OF ATOMS
10479
ITEM: BOX BOUNDS pp pp pp
4.0882558190751794e-01 4.9591174418091420e+01
4.0882558190751794e-01 4.9591174418091420e+01
4.0882558190751794e-01 4.9591174418091420e+01
ITEM: ATOMS id mol type mass q x y z xu yu zu ix iy iz vx vy vz fx fy fz 
1185 75 1 16 -0.4 3.84877 3.36663 5.45641 -45.3336 3.36663 5.45641 -1 0 0 -0.00381722 0.00328954 0.000648676 6.44296 6.82119 5.96031 
1194 75 3 1.008 0.03 1.76113 2.96887 3.3268 -47.4212 2.96887 3.3268 -1 0 0 0.0102991 -0.0254294 0.0258144 -27.5461 -0.199787 22.5049 
1196 75 3 1.008 0.03 5.96422 3.28205 5.64858 -43.2181 3.28205 5.64858 -1 0 0 -0.00486519 -0.0254196 -0.012378 -19.5867 -10.3632 7.32921 
1188 75 2 12.01 0.14 2.76796 3.20881 3.16731 -46.4144 3.20881 3.16731 -1 0 0 0.00801604 -0.00691313 0.00374893 29.5324 -0.663429 20.8764 
4798 300 3 1.008 0.03 5.99358 2.55557 0.711066 55.1759 2.55557 0.711066 1 0 0 -0.00594895 0.0382541 -0.0188138 6.12944 -2.59055 1.03739 
5758 360 3 1.008 0.03 7.20705 7.63874 4.45715 -91.1577 -41.5436 -143.09 -2 -1 -3 -0.00598407 0.0171706 0.0182547 -13.0164 -6.06318 -2.02088 
5750 360 2 12.01 0.11 6.37363 7.12606 3.93355 -91.9911 -42.0563 -143.613 -2 -1 -3 0.000653468 -0.00592847 -0.00122556 5.17243 -6.66937 34.3897 
5760 360 3 1.008 0.03 6.48902 6.04082 4.11888 -91.8757 -43.1415 -143.428 -2 -1 -3 0.00623548 -0.00765575 0.00267407 -3.63766 9.42702 -8.75903 
4799 300 3 1.008 0.03 6.37223 4.04138 1.50302 55.5546 4.04138 1.50302 1 0 0 -0.0107573 0.0142387 0.00955263 7.34968 -7.2385 -3.25907 
4790 300 2 12.01 0.11 6.81481 3.26561 0.853273 55.9972 3.26561 0.853273 1 0 0 -0.00191152 0.00234568 -0.00293372 -18.2086 -2.1573 30.8024 
4786 300 1 16 -0.4 7.9521 2.62906 1.47236 57.1344 2.62906 1.47236 1 0 0 -0.00441717 0.00508541 -0.00164559 -13.0899 -3.04934 -6.55629 
5748 360 2 12.01 0.14 5.34573 7.15477 1.80431 -93.019 -42.0276 -145.743 -2 -1 -3 0.002836 0.00640019 -0.00670342 -14.6381 -7.22313 35.1527 
5746 360 1 16 -0.4 6.42098 7.54221 2.63519 -91.9437 -41.6401 -144.912 -2 -1 -3 -0.00133468 -0.000422776 -0.000280478 18.4844 7.86742 -36.705 
5759 360 3 1.008 0.03 5.41578 7.47023 4.31077 -92.9489 -41.7121 -143.236 -2 -1 -3 -0.00687242 -0.00397237 0.00727208 -0.441612 -1.1072 11.0566 
1197 75 3 1.008 0.03 5.08881 3.27132 7.12815 -44.0935 3.27132 7.12815 -1 0 0 -0.0085626 0.0120483 -0.0151463 -4.12743 19.1786 41.1369 
1189 75 2 12.01 0.11 5.02302 2.94224 6.16096 -44.1593 2.94224 6.16096 -1 0 0 0.000261402 -0.00837454 0.00383953 6.52017 16.6929 -54.1468 
1192 75 3 1.008 0.03 3.43076 1.6468 4.40516 -45.7516 1.6468 4.40516 -1 0 0 -0.00247307 -0.00425719 -0.00439334 15.8799 14.412 -1.52078 
5754 360 3 1.008 0.03 5.13094 6.09899 1.90165 -93.2338 -43.0834 -145.645 -2 -1 -3 -0.0134492 0.0219961 -0.0191403 2.91131 -7.42614 -3.9433 
5753 360 3 1.008 0.03 4.42629 7.63781 2.1719 -93.9384 -41.5445 -145.375 -2 -1 -3 -0.029275 -0.00508359 -0.0047739 7.39028 0.703883 -2.9544 
1195 75 3 1.008 0.03 4.97409 1.89456 6.21837 -44.2083 1.89456 6.21837 -1 0 0 0.00996367 0.0130822 -0.00125142 6.68165 -27.2978 2.25891 
1187 75 2 12.01 0.14 3.78113 2.69194 4.21252 -45.4012 2.69194 4.21252 -1 0 0 0.00550474 0.00644377 -0.00692225 -54.9434 -27.5238 -0.767594 
1186 75 1 16 -0.4 3.04721 4.5623 2.98191 -46.1351 4.5623 2.98191 -1 0 0 0.000786848 -0.00454899 0.00172128 -23.2139 26.5513 0.0634072 
1191 75 3 1.008 0.03 4.69067 2.68892 3.70692 -44.4917 2.68892 3.70692 -1 0 0 -0.00127932 0.0159676 -0.00328006 32.3584 0.986717 -9.95256 
1193 75 3 1.008 0.03 2.91678 2.65404 2.28551 -46.2656 2.65404 2.28551 -1 0 0 0.0490468 -0.0111541 -0.00785017 9.76354 -7.32499 -25.7885 
8924 558 3 1.008 0.03 8.5782 3.18691 5.79026 57.7605 52.3693 5.79026 1 1 0 0.0121043 0.00770729 0.0196385 4.73425 20.1982 11.7527 
816 51 3 1.008 0.03 2.28194 4.77669 7.05659 199.011 4.77669 7.05659 4 0 0 -0.010462 0.0167807 -0.0155089 4.07306 6.34794 -3.89927 
4791 300 3 1.008 0.03 8.20099 4.27956 3.27911 57.3833 4.27956 3.27911 1 0 0 0.0115246 -0.00954828 -0.0013341 -11.3573 10.7912 16.1416 
4792 300 3 1.008 0.03 8.24191 5.54176 1.96392 57.4243 5.54176 1.96392 1 0 0 -0.0314555 -0.0345764 -0.0132531 10.1336 -26.3581 8.41227 
8561 536 1 16 -0.4 0.41594 8.30455 1.67692 0.41594 8.30455 -47.5054 0 0 -1 0.000285911 -0.00199842 -0.00214598 -8.58916 13.2478 7.60891 
8567 536 3 1.008 0.03 0.410117 8.14769 3.75755 0.410117 8.14769 -45.4248 0 0 -1 -0.0137061 0.00321804 -0.0331167 -5.85266 9.55959 0.585534 
1199 75 3 1.008 0.03 1.02921 4.92668 2.5688 -48.1531 4.92668 2.5688 -1 0 0 -0.00147716 -0.0139382 -0.00667601 -24.5985 -10.1292 6.42305 
845 53 3 1.008 0.03 5.70735 0.864073 3.736 54.8897 99.2288 -45.4463 1 2 -1 0.0505398 0.0149685 0.0211002 -10.6638 3.19291 13.0472 
806 51 2 12.01 0.11 1.71833 5.66646 6.75829 198.448 5.66646 6.75829 4 0 0 -0.000104819 -0.000465807 0.00284482 -63.5912 -32.7547 27.1495 
1200 75 3 1.008 0.03 2.08194 6.31941 2.43294 -47.1004 6.31941 2.43294 -1 0 0 -0.0333427 0.0298925 0.019638 1.82278 -23.1211 -18.7313 
814 51 3 1.008 0.03 1.93765 5.90504 5.73127 198.667 5.90504 5.73127 4 0 0 -0.0233717 0.00507282 -0.0250579 8.07735 12.6366 -5.73389 
843 53 3 1.008 0.03 6.91707 0.666576 2.58052 56.0994 99.0313 -46.6018 1 2 -1 0.00212564 -0.000630875 -0.00342963 3.04844 -8.08979 11.225 
1190 75 2 12.01 0.11 1.98957 5.21046 2.25313 -47.1928 5.21046 2.25313 -1 0 0 0.000447532 0.00560137 -0.00488895 58.198 0.123386 -2.41398 
809 51 3 1.008 0.03 0.664171 3.46793 5.98367 197.394 3.46793 5.98367 4 0 0 0.0203305 0.0158203 0.0128769 13.1781 -8.50119 2.56031 
1198 75 3 1.008 0.03 2.24511 4.76776 1.25611 -46.9372 4.76776 1.25611 -1 0 0 -0.0144392 -0.0041807 0.00549044 -17.3848 27.3473 6.17861 
2603 163 3 1.008 0.03 7.02235 7.27456 7.29873 7.02235 7.27456 154.846 0 0 3 -0.0133569 0.0379329 -0.0160991 -1.79367 3.2085 17.4137 
1583 99 3 1.008 0.03 14.1865 0.926938 5.72677 63.3689 -48.2554 54.9091 1 -1 1 -0.0381082 0.0141642 0.0154242 9.18395 24.8604 -5.3942 
4794 300 3 1.008 0.03 9.8758 2.91917 2.1668 59.0582 2.91917 2.1668 1 0 0 -0.00831354 -0.00504493 0.00163773 7.56347 -15.5961 3.23115 
8917 558 2 12.01 0.11 8.80591 3.9398 6.59422 57.9883 53.1222 6.59422 1 1 0 0.00471461 -0.0028562 -0.00198184 -28.8779 -48.1902 -21.4361 
4788 300 2 12.01 0.14 9.08839 3.44089 1.66717 58.2707 3.44089 1.66717 1 0 0 -0.00415674 -0.0020443 -0.00318422 -0.41915 46.7585 -36.3505 
4793 300 3 1.008 0.03 9.48435 3.79372 0.68007 58.6667 3.79372 0.68007 1 0 0 -0.019406 -0.00339531 0.0191794 -5.62282 -11.6262 16.6723 
4747 297 3 1.008 0.03 12.4976 1.27866 0.582396 -36.6848 50.461 -97.7823 -1 1 -2 0.0447536 -0.0184541 0.00143733 3.25126 1.57803 10.3246 
8925 558 3 1.008 0.03 8.71612 4.92327 6.1495 57.8985 54.1056 6.1495 1 1 0 -0.0154408 0.0130318 0.00583748 9.97672 6.27997 0.322833 
4222 264 3 1.008 0.03 13.3694 4.58812 0.66694 13.3694 -44.5942 -97.6978 0 -1 -2 -0.0078753 0.0117171 -0.0258411 -9.43007 -5.33859 6.73822 
4797 300 3 1.008 0.03 9.57502 7.17766 2.64099 58.7574 7.17766 2.64099 1 0 0 0.00277156 -0.0188586 0.0188567 9.36298 -4.72655 9.58291 
4787 300 2 12.01 0.14 8.79358 4.70736 2.49656 57.9759 4.70736 2.49656 1 0 0 0.00507984 -0.00567546 -0.000640972 15.2993 2.07256 -7.26273 
4789 300 2 12.01 0.11 10.0191 6.50383 3.40414 59.2014 6.50383 3.40414 1 0 0 -0.00557121 0.00190794 0.00678915 2.87979 -1.90165 -1.78692 
1578 99 3 1.008 0.03 12.3121 3.51196 4.68313 61.4945 -45.6704 53.8655 1 -1 1 -0.0246849 0.00836868 -0.00252209 -2.45485 23.1983 10.2514 
1574 99 2 12.01 0.11 14.5104 1.93313 5.33037 63.6928 -47.2492 54.5127 1 -1 1 -0.00241434 -0.00101308 -0.00190093 -17.5348 -5.0634 -32.039 
8770 549 1 16 -0.4 16.0962 6.24192 1.4025 -33.0861 -42.9404 1.4025 -1 -1 0 -0.00405157 0.00267505 0.00382946 12.4224 18.2813 22.5175 
1569 99 1 16 -0.4 11.5841 1.69647 6.18345 60.7664 -47.4859 55.3658 1 -1 1 -0.00670609 -0.00311234 -0.00204069 10.0618 8.87959 22.2182 
1572 99 2 12.01 0.14 12.4228 2.61753 4.13665 61.6051 -46.5648 53.319 1 -1 1 0.00214367 0.000443131 0.00711309 -2.21722 -7.79729 -2.7227 
1577 99 3 1.008 0.03 12.1474 2.85096 3.0851 61.3298 -46.3314 52.2674 1 -1 1 -0.00561841 -0.0281526 -0.00330223 -3.1789 -4.67504 15.8165 
1570 99 1 16 -0.4 13.7998 2.27908 4.08742 62.9821 -46.9033 53.2698 1 -1 1 0.00275388 -0.00561365 -0.000783291 24.4885 -12.5622 16.8645 
1571 99 2 12.01 0.14 11.5356 1.53301 4.79919 60.7179 -47.6493 53.9815 1 -1 1 -0.00229496 0.000991183 0.00675218 6.44595 -1.76947 -42.2707 
1575 99 3 1.008 0.03 11.9466 0.584325 4.36764 61.1289 -48.598 53.55 1 -1 1 0.00541433 0.053445 0.0126654 -17.2684 8.05761 20.0067 
2739 172 2 12.01 0.14 12.9224 7.03162 5.73276 12.9224 7.03162 54.9151 0 0 1 0.00199162 0.00420439 -0.00186717 12.7896 -41.4847 10.6186 
2744 172 3 1.008 0.03 12.4401 6.26164 5.08172 12.4401 6.26164 54.2641 0 0 1 -0.0103768 0.000818971 0.0186037 9.82596 21.6404 3.85484 
4796 300 3 1.008 0.03 10.9821 6.8197 3.75209 60.1644 6.8197 3.75209 1 0 0 -0.00373913 0.00782039 0.0224962 11.6346 7.84061 -18.7589 
1576 99 3 1.008 0.03 10.4779 1.69987 4.51001 59.6603 -47.4825 53.6924 1 -1 1 -0.0224136 -0.0052052 -0.021654 12.0834 -7.25521 -2.19189 
4795 300 3 1.008 0.03 9.56454 6.63439 4.35071 58.7469 6.63439 4.35071 1 0 0 -0.0190393 -0.011134 0.00645519 -26.2722 -0.49407 11.9928 
4785 300 1 16 -0.4 10.0602 5.13392 3.03791 59.2425 5.13392 3.03791 1 0 0 0.00411352 -0.000622108 -0.00142044 -16.1561 5.57324 -10.2308 
8784 549 3 1.008 0.03 15.9114 8.07228 2.64262 -33.2709 -41.1101 2.64262 -1 -1 0 0.0182782 -0.0177668 -0.0034456 -5.17522 -19.2423 -6.32177 
2738 172 1 16 -0.4 11.1858 8.47314 6.20545 11.1858 8.47314 55.3878 0 0 1 0.00199294 0.0124754 -0.00134019 3.77126 -13.7352 42.7632 
8923 558 3 1.008 0.03 9.77491 3.60106 6.92733 58.9573 52.7834 6.92733 1 1 0 0.0121618 0.012597 0.00476975 12.3008 16.2978 -0.296564 
8774 549 2 12.01 0.11 16.1473 7.6468 1.65114 -33.0351 -41.5355 1.65114 -1 -1 0 -0.000470858 0.00550571 -0.00517197 -1.849 28.519 -29.566 
2747 172 3 1.008 0.03 14.7657 5.86 4.48524 14.7657 5.86 53.6676 0 0 1 0.00703961 0.00631674 -0.024538 8.14149 4.33896 9.85874 
2743 172 3 1.008 0.03 13.3029 7.92002 5.31851 13.3029 7.92002 54.5009 0 0 1 0.0161765 -0.0204659 -0.0117107 -0.829848 18.9962 -31.1682 
2748 172 3 1.008 0.03 15.4612 7.37793 5.0646 15.4612 7.37793 54.247 0 0 1 -0.00517248 0.00666547 0.0160557 -0.71723 -3.05102 5.02642 
8775 549 3 1.008 0.03 15.7662 3.97428 2.38536 -33.4162 -45.2081 2.38536 -1 -1 0 -0.0200352 -0.0264704 0.00303959 13.0234 0.804579 -10.7223 
4749 297 3 1.008 0.03 14.0154 0.616668 1.30758 -35.167 49.799 -97.0571 -1 1 -2 -0.0181849 -0.0225358 0.0249704 -18.3435 4.78475 4.80659 
4748 297 3 1.008 0.03 12.5085 0.80837 2.27799 -36.6739 49.9907 -96.0867 -1 1 -2 -0.0198712 -0.0132564 -0.0192883 -2.9932 1.95409 15.2712 
1582 99 3 1.008 0.03 14.4387 2.72396 6.0601 63.6211 -46.4584 55.2424 1 -1 1 0.00708751 0.00659271 0.0240885 -9.7897 2.14089 7.55803 
4741 297 2 12.01 0.11 12.9004 0.571133 1.32604 -36.282 49.7535 -97.0387 -1 1 -2 0.00664767 0.0019084 0.00825162 16.4581 -10.2257 -33.6797 
1584 99 3 1.008 0.03 15.5822 1.94375 5.09229 64.7645 -47.2386 54.2746 1 -1 1 0.0292868 0.0107451 -0.00631891 -5.44606 -9.89811 1.24837 
2749 172 3 1.008 0.03 16.0119 5.82226 5.77042 16.0119 5.82226 54.9528 0 0 1 0.0238575 -0.00525458 -0.00553551 -14.6473 8.44277 -0.766071 
8783 549 3 1.008 0.03 15.5349 8.17419 0.879221 -33.6474 -41.0082 0.879221 -1 -1 0 -0.0170105 0.00727546 -0.0200833 5.2149 -10.1417 16.1104 
2740 172 2 12.01 0.14 12.0393 7.49339 6.82417 12.0393 7.49339 56.0065 0 0 1 0.000726395 -0.000396272 0.00377672 -27.2342 15.483 20.1218 
8779 549 3 1.008 0.03 15.8313 2.15445 0.990522 -33.3511 -47.0279 0.990522 -1 -1 0 0.00563172 0.0226326 -0.0195706 -0.130281 -11.0483 -3.34488 
2737 172 1 16 -0.4 14.0633 6.43914 6.29475 14.0633 6.43914 55.4771 0 0 1 0.00261261 -0.00196926 -0.00622178 0.319062 -2.88819 20.9569 
1573 99 2 12.01 0.11 11.0606 0.614728 6.90995 60.243 -48.5676 56.0923 1 -1 1 0.000711707 0.0013385 0.0034388 -4.56492 -7.9532 4.2893 
2741 172 2 12.01 0.11 15.1278 6.38594 5.39398 15.1278 6.38594 54.5763 0 0 1 -0.000357429 0.00178642 -0.00174893 17.0553 -17.38 -28.0056 
2745 172 3 1.008 0.03 11.4706 6.67128 7.30871 11.4706 6.67128 56.4911 0 0 1 0.0261408 0.00928198 -0.0159466 6.04997 7.76652 -10.1232 
5123 321 2 12.01 0.14 21.3859 5.18815 6.78169 21.3859 54.3705 6.78169 0 1 0 0.00127047 0.00278297 -0.00759097 32.2585 -25.2473 -9.14363 
3439 215 3 1.008 0.03 24.7516 5.29798 5.45426 73.9339 5.29798 54.6366 1 0 1 0.00273927 -0.0105589 -0.00419509 22.6127 -9.40514 -0.597453 
3262 204 3 1.008 0.03 22.325 1.96607 5.90008 120.69 51.1484 104.265 2 1 2 -0.00120494 -0.0100785 0.0200514 0.618457 17.9756 14.5588 
8786 550 1 16 -0.4 17.6783 2.63803 6.62262 -80.6864 199.367 55.805 -2 4 1 -0.00568595 0.00212625 0.00698464 -9.01518 3.00658 -0.907275 
8772 549 2 12.01 0.14 17.1252 5.65312 2.19186 -32.0572 -43.5292 2.19186 -1 -1 0 0.0028391 0.000372384 -0.00688215 -30.137 -17.0582 45.7369 
8777 549 3 1.008 0.03 17.0051 5.96426 3.30924 -32.1772 -43.2181 3.30924 -1 -1 0 -0.0141564 0.0156026 0.00691238 9.6088 -9.82468 -49.7928 
8776 549 3 1.008 0.03 17.3337 3.60733 2.90916 -31.8486 -45.575 2.90916 -1 -1 0 0.01247 0.013399 -0.0228102 16.7402 -7.01643 11.6719 
8771 549 2 12.01 0.14 16.8392 4.12988 2.12723 -32.3432 -45.0525 2.12723 -1 -1 0 0.00367505 0.00608982 -0.0043659 -26.7487 25.888 15.7443 
8778 549 3 1.008 0.03 18.1102 5.90072 1.82869 -31.0722 -43.2816 1.82869 -1 -1 0 0.00896603 -0.0337963 -0.0173804 8.80122 1.58224 -0.471392 
8800 550 3 1.008 0.03 18.5854 2.06932 4.98623 -79.7792 198.799 54.1686 -2 4 1 -0.0170939 0.00488641 0.0197307 1.73368 3.84166 -21.5519 
8798 550 3 1.008 0.03 19.6586 2.91112 6.11038 -78.7061 199.641 55.2927 -2 4 1 0.00226018 -0.0200742 -0.00551481 0.583394 -3.4438 -0.850076 
8790 550 2 12.01 0.11 18.8529 2.18475 6.00619 -79.5118 198.914 55.1885 -2 4 1 0.00279607 0.00366325 -7.4196e-05 0.993225 7.33547 6.90755 
8782 549 3 1.008 0.03 17.1572 8.01856 1.453 -32.0251 -41.1638 1.453 -1 -1 0 -0.0210825 -0.0283674 0.00524623 -1.35442 -2.89872 -0.977113 
3257 204 3 1.008 0.03 20.986 1.28612 2.78576 119.351 50.4685 101.15 2 1 2 -0.00425801 0.00833351 -0.0258721 -0.362649 6.24633 1.55591 
3255 204 3 1.008 0.03 20.1669 3.96462 2.66507 118.532 53.147 101.03 2 1 2 -0.00365146 0.0200724 0.018825 0.86018 -6.01631 5.58213 
3256 204 3 1.008 0.03 19.8508 2.86622 1.41587 118.215 52.0486 99.7806 2 1 2 0.0129724 0.015372 -0.0182206 7.35537 -7.25906 -1.61159 
3260 204 3 1.008 0.03 21.8733 5.58226 2.73693 120.238 54.7646 101.102 2 1 2 -0.0128316 0.000601466 -0.00916551 -14.8867 3.33517 0.6433 
3259 204 3 1.008 0.03 22.798 5.69422 1.18749 121.163 54.8766 99.5522 2 1 2 0.0138821 0.0344783 0.0177412 -16.5109 -16.3422 26.3287 
3261 204 3 1.008 0.03 23.1222 4.44158 2.39966 121.487 53.6239 100.764 2 1 2 -0.0118346 0.0249644 0.0175748 -5.49152 0.451321 -4.4081 
3253 204 2 12.01 0.11 22.2941 4.99625 1.93476 120.659 54.1786 100.299 2 1 2 -0.000823071 -0.00130783 -0.00117188 23.6257 -8.95846 -58.9745 
3251 204 2 12.01 0.14 20.6854 3.28953 1.97948 119.05 52.4719 100.344 2 1 2 -0.00069594 -0.00377342 -0.00949009 -22.4794 1.63672 4.55055 
3249 204 1 16 -0.4 21.4297 4.09965 1.12022 119.794 53.282 99.4849 2 1 2 -0.00308297 -0.00481016 -0.000461515 26.4663 33.242 27.5692 
3252 204 2 12.01 0.14 21.5423 2.22855 2.69869 119.907 51.4109 101.063 2 1 2 0.00881709 0.012593 -0.00159062 -15.709 6.94462 8.71515 
3258 204 3 1.008 0.03 22.3723 2.01116 2.03899 120.737 51.1935 100.404 2 1 2 -0.0109982 0.00482583 -0.0155599 13.5068 -0.914291 7.59591 
3250 204 1 16 -0.4 21.8154 2.76095 4.01795 120.18 51.9433 102.383 2 1 2 0.00496915 0.0049049 0.00164747 0.672953 -8.91032 -8.86483 
5127 321 3 1.008 0.03 21.1345 4.57505 5.94009 21.1345 53.7574 5.94009 0 1 0 -0.0222162 0.0196843 0.0108811 -2.69224 -4.58148 -12.5676 
3254 204 2 12.01 0.11 22.5405 1.87245 4.85972 120.905 51.0548 103.224 2 1 2 0.0031708 -0.00602841 -0.00522499 6.86121 -4.41803 -13.3889 
8799 550 3 1.008 0.03 19.1661 1.19708 6.28347 -79.1986 197.926 55.4658 -2 4 1 -0.0055102 5.19305e-05 0.00478676 3.93358 -8.51149 12.1048 
8769 549 1 16 -0.4 17.2036 3.63049 0.877794 -31.9787 -45.5519 0.877794 -1 -1 0 -0.00556508 -0.000509814 -0.000515187 8.63928 -7.77662 -5.48992 
5133 321 3 1.008 0.03 18.6814 5.59159 5.89358 18.6814 54.7739 5.89358 0 1 0 0.00777937 -0.00447572 0.0210597 1.50992 -8.15366 -2.28473 
5125 321 2 12.01 0.11 19.4205 6.32258 6.1975 19.4205 55.5049 6.1975 0 1 0 -0.000638632 0.00203713 -0.000227189 23.2676 33.6077 -26.5771 
5128 321 3 1.008 0.03 22.056 5.95621 6.44083 22.056 55.1386 6.44083 0 1 0 -0.0136178 0.00337969 0.0187859 9.20744 4.87379 -6.3448 
3264 204 3 1.008 0.03 23.6339 1.95329 4.69267 121.999 51.1356 103.057 2 1 2 0.00493666 0.00627405 -0.0306856 -12.1449 -5.38199 0.758318 
10104 635 6 16 -0.53 21.9113 8.46188 2.57604 120.276 57.6442 2.57604 2 1 0 0.00839796 -0.00182862 -0.000732117 -23.2874 12.8308 -5.29305 
8781 549 3 1.008 0.03 17.4996 1.60189 1.3961 -31.6828 -47.5805 1.3961 -1 -1 0 -0.003592 0.0287993 -0.0347065 4.00097 -2.83269 13.458 
3263 204 3 1.008 0.03 22.1648 0.867456 4.75255 120.529 50.0498 103.117 2 1 2 0.0141766 -0.00073456 -0.00787931 5.74 -10.1033 -11.3624 
5132 321 3 1.008 0.03 20.1035 6.59457 5.30354 20.1035 55.7769 5.30354 0 1 0 -0.00457029 -0.00409151 0.0237139 -34.5463 -5.00434 29.2781 
8773 549 2 12.01 0.11 16.8987 2.2537 0.791045 -32.2837 -46.9287 0.791045 -1 -1 0 8.35055e-05 0.00485097 0.00432002 -1.73293 16.2557 -24.3694 
5131 321 3 1.008 0.03 18.8298 7.2254 6.51468 18.8298 56.4077 6.51468 0 1 0 0.00892691 0.00535275 0.0209416 15.8395 -17.5574 -5.04472 
5121 321 1 16 -0.4 20.2712 5.85776 7.23805 20.2712 55.0401 7.23805 0 1 0 -0.00277826 -0.00321811 -0.00119782 -26.5197 6.78489 22.1802 
5129 321 3 1.008 0.03 23.1022 3.92061 7.35875 23.1022 53.103 7.35875 0 1 0 0.0157953 0.00259555 -0.0298514 -2.26916 -5.65914 -2.47512 
8572 536 3 1.008 0.03 2.00206 9.52599 1.97351 2.00206 9.52599 -47.2088 0 0 -1 0.00423636 0.000655875 0.00716425 -15.395 7.44488 -10.5076 
1156 73 2 12.01 0.14 2.25238 16.5664 2.13828 2.25238 114.931 2.13828 0 2 0 0.00828008 0.00240408 0.00136688 -23.5965 -50.6978 -45.0139 
8450 529 1 16 -0.4 0.642236 14.249 5.48955 49.8246 63.4314 103.854 1 1 2 0.00189271 -0.0040385 0.00139975 18.6668 -27.8425 -1.00884 
8464 529 3 1.008 0.03 1.5304 16.0321 5.72859 50.7127 65.2144 104.093 1 1 2 -0.00203385 -0.0129209 -0.00623555 -2.51937 -10.9079 5.20548 
8449 529 1 16 -0.4 1.48146 12.7433 2.92684 50.6638 61.9257 101.292 1 1 2 -0.00264257 -0.00620793 0.00594901 -8.5637 -6.28334 7.78471 
6664 417 3 1.008 0.03 5.19288 12.9228 1.68977 152.74 62.1051 149.237 3 1 3 -0.00847234 -0.00545325 -0.0188794 2.34641 -4.6322 -52.0285 
8451 529 2 12.01 0.14 1.56811 12.2954 4.29814 50.7505 61.4778 102.663 1 1 2 0.000402703 0.00159224 -0.00111813 5.12929 -16.808 -18.5337 
1052 66 3 1.008 0.03 8.05102 13.3303 5.7619 -41.1313 -85.0344 153.309 -1 -2 3 -0.0193306 -0.0236461 0.0155046 10.9184 18.5711 22.4617 
8452 529 2 12.01 0.14 1.80393 13.4117 5.33721 50.9863 62.594 103.702 1 1 2 0.00222287 0.00548941 -0.000336377 9.31279 -24.8298 3.37404 
8457 529 3 1.008 0.03 1.98135 12.809 6.26487 51.1637 61.9914 104.63 1 1 2 0.0191669 -0.00166536 -0.00924874 -7.67078 19.3847 -12.7608 
8030 502 3 1.008 0.03 6.13269 16.7748 5.4089 104.497 115.139 103.774 2 2 2 -0.00861858 -0.0129521 0.004656 -11.0986 1.60197 -25.4423 
8032 502 3 1.008 0.03 5.72021 16.2395 3.65867 104.085 114.604 102.023 2 2 2 -0.00669816 0.00643943 0.0213926 -4.26642 5.41013 17.1312 
8022 502 2 12.01 0.11 5.34352 16.695 4.60701 103.708 115.06 102.972 2 2 2 -0.000908116 -0.00060907 0.00285193 42.251 -14.5422 5.7601 
1041 66 1 16 -0.4 5.90189 13.2174 5.94027 -43.2805 -85.1473 153.487 -1 -2 3 -0.00156095 -0.00104943 -0.00466964 -10.374 19.666 -2.61192 
1045 66 2 12.01 0.11 7.1503 12.9546 5.36187 -42.0321 -85.4101 152.909 -1 -2 3 0.0017781 -0.000335528 -0.00761033 -1.6039 -34.623 -17.9056 
1051 66 3 1.008 0.03 7.12918 13.3589 4.3583 -42.0532 -85.0058 151.905 -1 -2 3 -0.00859187 -0.0141915 0.00481203 -1.29023 -4.7401 -7.90607 
1053 66 3 1.008 0.03 7.31286 11.8604 5.35027 -41.8695 -86.5043 152.897 -1 -2 3 -0.00732445 -0.0196794 0.017114 -4.1424 10.2251 -5.68093 
6663 417 3 1.008 0.03 3.9083 13.185 0.591744 151.455 62.3674 148.139 3 1 3 -0.00238087 0.0114528 0.00184492 -22.7779 -9.53165 -7.6387 
8458 529 3 1.008 0.03 2.76952 13.9094 5.10804 51.9519 63.0918 103.473 1 1 2 0.022613 -0.00740257 0.00958569 -15.8298 3.68372 1.63563 
8456 529 3 1.008 0.03 2.47532 11.6345 4.23949 51.6577 60.8168 102.604 1 1 2 0.013436 0.0267239 0.00430568 -17.9682 13.3925 9.28934 
8463 529 3 1.008 0.03 1.60529 15.1549 7.20459 50.7876 64.3372 105.569 1 1 2 0.0432215 0.0201846 -0.00429857 -11.7243 -9.17161 2.6913 
8571 536 3 1.008 0.03 0.532376 10.2664 1.37374 0.532376 10.2664 -47.8086 0 0 -1 0.0154417 -0.0159328 -0.0178464 -31.1462 51.8729 3.69152 
8031 502 3 1.008 0.03 4.61882 16.0528 5.06278 102.984 114.417 103.427 2 2 2 0.000567342 -0.0204124 0.00561265 -9.07686 -12.5185 -0.0466416 
8565 536 2 12.01 0.11 1.13169 9.46927 1.27517 1.13169 9.46927 -47.9072 0 0 -1 -0.00675165 -0.00320593 -0.00507213 45.495 -53.0182 39.5193 
6659 417 2 12.01 0.14 4.96678 13.1517 0.572895 152.514 62.3341 148.12 3 1 3 -0.00340825 -0.000261374 0.00443706 13.3312 39.3073 74.0964 
8455 529 3 1.008 0.03 0.739336 11.6272 4.6103 49.9217 60.8096 102.975 1 1 2 -0.00121957 -0.00713846 0.0289337 6.18572 9.47959 -7.9809 
8454 529 2 12.01 0.11 0.955544 15.3035 6.33361 50.1379 64.4859 104.698 1 1 2 0.000963888 -0.0075663 -0.0016166 38.0275 32.9521 -22.2893 
1154 73 1 16 -0.4 2.6957 16.7562 0.784395 2.6957 115.121 0.784395 0 2 0 0.00024735 0.00420955 0.00147385 -10.8102 8.25487 20.6112 
1162 73 3 1.008 0.03 2.19777 15.44 2.21442 2.19777 113.805 2.21442 0 2 0 0.0318058 0.0108607 0.0277558 5.84972 27.4652 6.14858 
6666 417 3 1.008 0.03 4.96911 15.1117 1.19883 152.516 64.294 148.746 3 1 3 0.00511502 0.00324771 0.00509291 -14.2379 25.4203 28.1206 
6670 417 3 1.008 0.03 6.67589 16.7434 1.11646 154.223 65.9258 148.664 3 1 3 0.0113512 -0.0132589 0.0282835 -0.107296 -15.4254 -6.2244 
1159 73 3 1.008 0.03 0.467136 16.6085 3.26398 0.467136 114.973 3.26398 0 2 0 -0.00738322 -0.00291894 -0.0172582 -6.81877 -3.74594 -7.78085 
1043 66 2 12.01 0.14 5.85207 13.0666 7.33119 -43.3303 -85.2981 154.878 -1 -2 3 -0.0036163 -0.00150001 0.0009454 -2.37066 -41.2288 0.310224 
5751 360 3 1.008 0.03 6.03077 8.62343 0.412416 -92.3339 -40.5589 -147.135 -2 -1 -3 0.00262315 -0.0137418 0.00356693 -4.17049 -36.5037 -7.67208 
2752 172 3 1.008 0.03 9.87191 9.80658 6.78337 9.87191 9.80658 55.9657 0 0 1 -0.00963466 -0.0185489 0.00621541 -11.7386 7.41402 4.77899 
1839 115 3 1.008 0.03 13.4474 12.9004 2.90492 13.4474 12.9004 -144.642 0 0 -3 0.0157253 -0.0126712 -0.00924461 -0.199967 -7.16383 -12.1702 
1838 115 3 1.008 0.03 13.7865 12.8351 1.15352 13.7865 12.8351 -146.394 0 0 -3 -0.0181081 -0.0120352 0.00180952 1.3738 -2.73291 -2.95133 
1830 115 2 12.01 0.11 13.0385 13.0905 1.89627 13.0385 13.0905 -145.651 0 0 -3 0.00244879 0.0020343 -0.00198519 -11.4213 -10.3682 20.4355 
2204 138 3 1.008 0.03 14.2481 13.1559 7.1206 63.4305 62.3383 -91.2441 1 1 -2 0.000633782 -0.0180304 0.013522 -6.14339 -1.65669 -23.6329 
1832 115 3 1.008 0.03 11.0688 16.7401 3.82452 11.0688 16.7401 -143.723 0 0 -3 0.0116918 -0.0249772 -0.0209676 11.7579 -9.36505 -10.4997 
2193 138 1 16 -0.4 15.1575 12.775 5.18116 64.3398 61.9574 -93.1835 1 1 -2 0.00822528 0.007512 0.00583004 -31.4679 -19.7671 20.8917 
2202 138 3 1.008 0.03 16.3497 11.5079 3.43438 65.532 60.6903 -94.9303 1 1 -2 -0.0104487 -0.0114917 0.0063676 4.08788 2.93214 -9.55992 
1833 115 3 1.008 0.03 12.3963 14.6267 3.91284 12.3963 14.6267 -143.634 0 0 -3 -0.00958732 0.0135145 -0.00347899 -29.7621 12.2505 -38.4368 
4951 310 3 1.008 0.03 16.2375 14.3863 3.39926 65.4199 14.3863 3.39926 1 0 0 -0.00632107 0.0124449 0.0215965 9.50663 0.975806 0.12966 
4955 310 3 1.008 0.03 16.3949 15.5143 5.46089 65.5773 15.5143 5.46089 1 0 0 -0.0116834 0.00997409 -0.0139208 3.0013 19.0029 4.70823 
4947 310 2 12.01 0.14 16.3554 15.3928 2.98602 65.5378 15.3928 2.98602 1 0 0 0.00320376 0.00501529 0.00896553 -13.3404 5.84028 37.3833 
4952 310 3 1.008 0.03 15.3145 15.7494 3.0347 64.4968 15.7494 3.0347 1 0 0 -0.019059 -0.018233 -0.0189676 7.86121 5.54414 2.78222 
2196 138 2 12.01 0.14 16.1291 10.8305 4.24163 65.3115 60.0129 -94.1231 1 1 -2 0.000496366 0.00384172 -0.00530275 -33.1105 -2.99244 -0.710844 
2195 138 2 12.01 0.14 14.9377 11.3439 5.04977 64.1201 60.5263 -93.3149 1 1 -2 0.00397226 0.00105368 -0.0127663 -17.3983 19.8356 -17.6477 
2201 138 3 1.008 0.03 15.8053 9.87735 3.83284 64.9877 59.0597 -94.5319 1 1 -2 0.00567852 0.0232476 -0.0192269 0.415418 -0.208778 -3.39694 
4954 310 3 1.008 0.03 16.1598 16.1173 1.05326 65.3421 16.1173 1.05326 1 0 0 -0.0125303 -0.00788565 0.00758276 8.49408 3.2922 -9.45629 
2200 138 3 1.008 0.03 13.9454 11.103 4.56742 63.1278 60.2854 -93.7973 1 1 -2 -0.00532997 -0.0145408 -0.0114835 26.1006 12.3559 1.40893 
4948 310 2 12.01 0.14 16.7123 15.3171 1.54248 65.8947 15.3171 1.54248 1 0 0 -0.0102397 -0.00156598 -0.00623985 36.3492 33.3244 23.2249 
4953 310 3 1.008 0.03 16.3719 14.4042 1.17423 65.5543 14.4042 1.17423 1 0 0 -0.0259922 0.00665054 0.0197854 -7.86806 -30.1548 -15.9648 
1840 115 3 1.008 0.03 12.115 12.462 1.76766 12.115 12.462 -145.779 0 0 -3 0.0296909 -0.00133501 0.0203266 18.737 13.4678 -0.86873 
1826 115 1 16 -0.4 12.7894 14.4764 1.87954 12.7894 14.4764 -145.668 0 0 -3 -0.00754011 0.00453793 -0.00587813 -17.2272 19.5375 9.63708 
1834 115 3 1.008 0.03 11.0023 14.1815 2.76533 11.0023 14.1815 -144.782 0 0 -3 0.0106564 -0.00986508 -0.00496893 -3.69947 15.5042 11.4256 
2203 138 3 1.008 0.03 13.1476 13.1638 5.62017 62.3299 62.3461 -92.7445 1 1 -2 0.0027276 -0.0166011 -0.00204252 -12.8467 -10.1554 4.16447 
1827 115 2 12.01 0.14 11.508 16.3584 2.87861 11.508 16.3584 -144.668 0 0 -3 -0.00453371 -0.00398498 0.00779651 -7.41975 21.7639 -12.3685 
1825 115 1 16 -0.4 10.5724 16.6797 1.85421 10.5724 16.6797 -145.693 0 0 -3 0.00895177 0.00312406 0.000479145 -9.99714 27.0918 -11.2328 
4949 310 2 12.01 0.11 16.6983 16.5049 5.04845 65.8806 16.5049 5.04845 1 0 0 -0.00151748 0.00122746 -0.00393005 -19.2275 -35.9521 -17.2439 
2742 172 2 12.01 0.11 10.5106 9.11077 7.29918 10.5106 9.11077 56.4815 0 0 1 -0.00184568 0.00174836 0.00231743 -31.0057 -24.5026 -36.9285 
2199 138 3 1.008 0.03 14.8159 10.8061 5.96977 63.9982 59.9885 -92.3949 1 1 -2 -0.0124208 -0.00330509 -0.000258792 8.78541 -0.100065 15.9392 
2197 138 2 12.01 0.11 14.1249 13.3533 6.01984 63.3073 62.5356 -92.3449 1 1 -2 0.0032621 -0.00138946 0.00400286 35.415 9.84544 -3.1267 
2205 138 3 1.008 0.03 14.2301 14.4264 5.86764 63.4124 63.6088 -92.4971 1 1 -2 -0.0129754 -0.0160732 -0.0299864 0.847975 1.63998 6.41746 
1828 115 2 12.01 0.14 11.8467 14.8753 2.91907 11.8467 14.8753 -144.628 0 0 -3 -0.00498384 -0.000754998 -0.00194005 40.3261 -45.7513 17.6612 
163 11 2 12.01 0.14 24.6521 13.3355 2.50045 123.017 62.5179 100.865 2 1 2 -0.00575588 -0.000380317 -0.00267367 4.63042 -3.49241 -31.0046 
161 11 1 16 -0.4 24.3331 14.5416 3.12457 122.698 63.7239 101.489 2 1 2 0.00379065 -0.00485206 0.00125982 17.9794 -1.59263 21.1264 
173 11 3 1.008 0.03 24.979 15.673 4.56235 123.344 64.8554 102.927 2 1 2 0.00965329 -0.00686384 -0.0111345 0.606016 30.6512 17.2085 
4945 310 1 16 -0.4 17.3124 16.1986 3.78938 66.4947 16.1986 3.78938 1 0 0 0.00363503 -0.00162274 0.00677487 -28.1923 -5.66889 -18.0376 
2194 138 1 16 -0.4 17.2092 10.6769 5.08767 66.3915 59.8592 -93.277 1 1 -2 0.00634171 -0.0038944 0.00530807 12.3295 -2.73835 8.91158 
2207 138 3 1.008 0.03 17.4874 8.66705 4.80989 66.6697 57.8494 -93.5548 1 1 -2 0.0173755 -0.0167904 -0.00763859 0.56857 -7.19624 -3.01956 
168 11 3 1.008 0.03 23.7804 12.7377 2.5408 122.145 61.92 100.905 2 1 2 0.0172046 0.0178683 0.0245003 -11.979 -15.7831 3.05138 
7165 448 3 1.008 0.03 23.7868 15.4089 6.81308 23.7868 -33.7734 55.9954 0 -1 1 -0.00185687 -0.00441883 0.0153045 -14.6378 0.240807 4.91768 
2198 138 2 12.01 0.11 18.005 9.60465 4.65437 67.1874 58.787 -93.7103 1 1 -2 0.00513752 -0.00320456 0.00392223 44.31 10.642 12.1086 
2208 138 3 1.008 0.03 18.3485 9.73987 3.61664 67.5309 58.9222 -94.7481 1 1 -2 -0.0162377 -0.00553653 0.00833277 -7.16306 -4.6126 4.55326 
10108 635 8 19 -0.16 23.947 10.1012 3.90378 122.312 59.2835 3.90378 2 1 0 -0.000178681 -0.00573434 0.00122734 19.3234 0.966824 8.62669 
10105 635 6 16 -0.53 22.8634 10.2265 1.25882 121.228 59.4089 1.25882 2 1 0 -0.00434183 0.00438355 -0.00148006 21.9625 27.8392 -21.3239 
10106 635 7 12.01 0.35 22.6899 10.4428 3.84796 121.055 59.6251 3.84796 2 1 0 0.00303274 -0.00659036 0.0052957 -19.9437 17.3188 14.6983 
10103 635 5 32.06 1.02 21.963 9.88881 2.29753 120.328 59.0712 2.29753 2 1 0 0.000349121 -0.00372657 0.0018984 8.24257 -53.0494 15.5452 
7807 488 3 1.008 0.03 18.5456 14.1287 4.75884 67.7279 14.1287 4.75884 1 0 0 0.000352962 -0.00444119 0.0152489 5.46542 8.38504 4.82954 
10112 635 6 16 -0.53 18.9476 12.5258 2.2007 117.312 61.7081 2.2007 2 1 0 0.000366138 -0.00213763 0.00337842 5.76968 -10.4575 6.29231 
10107 635 8 19 -0.16 22.5931 11.7708 4.01269 120.958 60.9532 4.01269 2 1 0 0.00300333 0.00841768 0.00126074 4.41453 -15.4432 -0.0987851 
10109 635 8 19 -0.16 22.0662 9.88429 4.90249 120.431 59.0666 4.90249 2 1 0 0.00197259 0.00126134 -0.00361236 11.6113 8.57039 -12.0072 
2206 138 3 1.008 0.03 18.9513 9.61004 5.26768 68.1336 58.7924 -93.097 1 1 -2 -0.00935285 0.0175419 -0.0109599 -22.7106 -3.46847 -12.5711 
4946 310 1 16 -0.4 18.162 15.4649 1.60537 67.3444 15.4649 1.60537 1 0 0 0.00359817 0.00252203 0.00210479 -14.9936 1.08238 -50.6087 
10102 635 4 14.01 -0.66 20.637 10.6611 2.38402 119.002 59.8435 2.38402 2 1 0 -0.00304609 -0.00238648 0.000363782 -28.9091 -13.7625 14.8541 
7801 488 3 1.008 0.03 21.8038 14.5382 3.5501 70.9861 14.5382 3.5501 1 0 0 0.00205098 -0.0231997 0.0182581 -9.16225 20.9366 9.52936 
7808 488 3 1.008 0.03 20.0003 13.2597 4.53109 69.1827 13.2597 4.53109 1 0 0 0.00291303 -0.0076221 -0.00130503 0.27031 40.7445 3.50131 
7794 488 1 16 -0.4 19.8689 15.2814 3.65257 69.0513 15.2814 3.65257 1 0 0 0.000737492 0.00581008 0.00133288 41.7815 -10.795 27.021 