ITEM: TIMESTEP
2650000
ITEM: NUMBER OF ATOMS
10479
ITEM: BOX BOUNDS pp pp pp
4.0882558190751794e-01 4.9591174418091420e+01
4.0882558190751794e-01 4.9591174418091420e+01
4.0882558190751794e-01 4.9591174418091420e+01
ITEM: ATOMS id mol type mass q x y z xu yu zu ix iy iz vx vy vz fx fy fz 
10125 636 5 32.06 1.02 5.92806 5.08256 0.760151 5.92806 5.08256 49.9425 0 0 1 -0.00302121 -0.00102117 -0.00599648 31.0773 41.6765 -20.4046 
10127 636 6 16 -0.53 6.39612 4.49641 2.00736 6.39612 4.49641 51.1897 0 0 1 -0.00146267 0.00433454 -0.0011412 -7.43566 -19.9337 -3.66907 
10120 636 6 16 -0.53 4.23236 8.18901 1.4396 4.23236 8.18901 50.6219 0 0 1 -0.00198067 0.00230728 0.00253242 -1.91696 -8.79505 -12.1815 
975 61 3 1.008 0.03 7.74538 0.729329 1.75399 7.74538 0.729329 50.9363 0 0 1 0.0235161 -0.00949698 -0.000812766 -6.89066 -20.3293 -3.90818 
2256 141 3 1.008 0.03 5.087 0.89778 4.79882 5.087 0.89778 53.9812 0 0 1 -0.0030359 -0.00610836 0.041578 1.46529 -8.66828 -4.86922 
7921 496 1 16 -0.4 6.3446 5.51427 4.6281 6.3446 5.51427 53.8105 0 0 1 -0.00572132 -0.00748699 0.00818559 0.155335 -11.8205 -14.5085 
7925 496 2 12.01 0.11 5.08362 5.96532 5.09673 5.08362 5.96532 54.2791 0 0 1 0.0033915 0.0043038 -0.00202815 29.2783 50.4228 42.9292 
7927 496 3 1.008 0.03 6.73102 7.04005 3.25595 6.73102 7.04005 52.4383 0 0 1 -0.0300845 0.0192258 0.0145944 6.9755 -5.2724 19.1621 
2250 141 3 1.008 0.03 3.31499 3.305 4.73697 3.31499 3.305 53.9193 0 0 1 -0.0105865 -0.0322645 -0.022338 -13.0403 -16.9757 -8.53792 
10461 672 9 24.305 2 6.87235 3.8373 3.85761 6.87235 3.8373 53.04 0 0 1 0.00165395 0.00446711 0.0034836 21.1252 -25.4392 6.08931 
7923 496 2 12.01 0.14 7.13728 6.60257 4.20299 7.13728 6.60257 53.3853 0 0 1 0.00112459 0.00462295 0.00327733 -36.5315 44.4749 19.3459 
7928 496 3 1.008 0.03 7.05628 7.35817 5.04314 7.05628 7.35817 54.2255 0 0 1 -0.0144349 0.00323667 -0.0225792 6.89981 -9.06507 -27.3085 
7933 496 3 1.008 0.03 5.2578 6.53721 6.10887 5.2578 6.53721 55.2912 0 0 1 -0.0129588 -0.00446623 0.0176783 -15.7818 -13.456 -55.5391 
2249 141 3 1.008 0.03 4.07566 4.1998 3.55277 4.07566 4.1998 52.7351 0 0 1 -0.00870741 -0.031275 0.0216344 -1.19671 -34.0972 -6.90332 
7931 496 3 1.008 0.03 4.42586 6.43764 4.31823 4.42586 6.43764 53.5006 0 0 1 -0.0102039 -0.0214699 0.0172572 12.2014 -3.37416 19.1349 
2242 141 1 16 -0.4 5.27867 2.89575 4.56726 5.27867 2.89575 53.7496 0 0 1 -0.00664126 0.00616621 0.00748616 27.8433 -10.8548 14.5917 
976 61 3 1.008 0.03 7.4193 2.40857 1.36143 7.4193 2.40857 50.5438 0 0 1 0.00595112 0.0114301 0.00945283 9.42136 -15.3983 -2.29499 
8262 517 2 12.01 0.11 1.66204 6.11997 2.98554 100.027 6.11997 -46.1968 2 0 -1 0.0013044 -0.00601123 -0.00604648 -43.4602 16.5939 -27.1515 
2243 141 2 12.01 0.14 3.72791 2.15 2.80632 3.72791 2.15 51.9887 0 0 1 0.00146738 -0.00412354 -0.000455598 -26.6681 -2.84983 -6.36244 
2244 141 2 12.01 0.14 4.0291 3.13481 3.92736 4.0291 3.13481 53.1097 0 0 1 0.00164233 -0.00547714 -0.00229218 2.99004 56.9607 11.0949 
2241 141 1 16 -0.4 4.89146 1.90712 2.12735 4.89146 1.90712 51.3097 0 0 1 0.00858628 -0.00566352 0.00358842 33.1401 -3.61812 -42.9208 
2246 141 2 12.01 0.11 5.19923 1.73702 5.46147 5.19923 1.73702 54.6438 0 0 1 -0.0022572 0.0084456 -0.00377406 11.846 -12.8992 -11.2816 
8258 517 1 16 -0.4 1.58608 5.36964 4.19415 99.9508 5.36964 -44.9882 2 0 -1 0.00207426 -0.0020765 -0.000685393 16.2967 0.921709 -17.4208 
7924 496 2 12.01 0.14 8.55401 6.20375 4.06413 8.55401 6.20375 53.2465 0 0 1 -0.00299838 -0.00448601 0.000153273 12.158 -8.24462 50.8105 
961 61 1 16 -0.4 7.89653 3.17315 5.50963 7.89653 3.17315 54.692 0 0 1 -0.000580592 0.00765197 -0.00124719 -1.96727 -12.9357 3.35127 
962 61 1 16 -0.4 7.95334 2.08378 3.25571 7.95334 2.08378 52.4381 0 0 1 -0.0035899 -0.00410745 0.00568043 3.05353 12.367 41.3543 
966 61 2 12.01 0.11 8.07582 1.72196 1.918 8.07582 1.72196 51.1003 0 0 1 -0.00514805 -0.00641194 -0.00268483 -29.6302 14.8702 -5.41587 
7922 496 1 16 -0.4 8.56908 4.85083 3.63397 8.56908 4.85083 52.8163 0 0 1 0.00361581 -0.00411707 0.0061294 20.9105 -0.516595 1.60984 
2254 141 3 1.008 0.03 5.99414 1.38325 6.17219 5.99414 1.38325 55.3545 0 0 1 0.00295178 -0.0310312 0.0126347 -6.22165 26.151 -20.184 
8271 517 3 1.008 0.03 2.60496 6.08511 2.53852 100.97 6.08511 -46.6438 2 0 -1 0.0252268 -0.0153065 0.014278 29.326 -13.5817 -9.45513 
2255 141 3 1.008 0.03 4.3136 1.69074 6.03697 4.3136 1.69074 55.2193 0 0 1 0.000102229 -0.013276 -0.00138945 -19.902 8.36152 12.3535 
7932 496 3 1.008 0.03 4.68031 5.09258 5.45895 4.68031 5.09258 54.6413 0 0 1 0.0313078 -0.0257756 0.0273106 -29.0686 -26.75 12.4908 
2247 141 3 1.008 0.03 2.87935 2.40209 2.13442 2.87935 2.40209 51.3168 0 0 1 0.0222631 0.0307246 0.0262092 9.83348 4.58913 11.4127 
965 61 2 12.01 0.11 7.8916 3.80517 6.81133 7.8916 3.80517 55.9937 0 0 1 -0.00541985 0.00273973 -0.000323576 6.26128 8.06953 32.2933 
968 61 3 1.008 0.03 8.18687 1.34616 6.39687 8.18687 1.34616 55.5792 0 0 1 0.0136964 0.00938798 -0.0101314 -7.44179 -21.4401 4.53849 
10117 636 4 14.01 -0.66 6.14949 6.61208 0.846073 6.14949 6.61208 50.0284 0 0 1 -0.0102025 0.0028996 0.00409188 0.900379 9.24773 13.4792 
4486 281 2 12.01 0.11 2.61763 7.96638 7.22769 100.982 -41.216 154.775 2 -1 3 0.00159175 -0.000247316 -0.00231227 -3.27753 -0.264159 4.85811 
2248 141 3 1.008 0.03 3.55276 1.17918 3.18166 3.55276 1.17918 52.364 0 0 1 0.0159811 0.00496917 0.00753242 -16.6213 -17.2871 15.8388 
8264 517 3 1.008 0.03 0.851249 4.81961 6.5192 99.2159 4.81961 -42.6631 2 0 -1 -0.00414924 -0.00381338 -0.0286273 -3.9892 -9.49884 0.505366 
4495 281 3 1.008 0.03 2.74626 7.11846 6.57427 101.111 -42.0639 154.121 2 -1 3 -0.0134653 0.016716 -0.016181 -5.45931 -10.6656 -2.02951 
971 61 3 1.008 0.03 7.16135 4.63575 6.68449 7.16135 4.63575 55.8668 0 0 1 0.00984782 0.0129902 0.00249322 14.7521 -9.45518 15.4339 
8270 517 3 1.008 0.03 1.52875 7.23274 3.01308 99.8934 7.23274 -46.1693 2 0 -1 -0.0309958 -0.0032887 -0.0298697 -5.22062 -22.6505 16.2929 
3662 229 3 1.008 0.03 0.584859 8.46087 1.29108 0.584859 57.6432 1.29108 0 1 0 0.00759887 0.0146674 -0.0265861 1.28132 -14.5253 13.9061 
4490 281 3 1.008 0.03 2.98139 8.49711 4.81552 101.346 -40.6852 152.363 2 -1 3 -0.00849144 0.0162511 0.0336785 10.5169 5.65759 -1.21253 
8272 517 3 1.008 0.03 0.900817 5.73549 2.22732 99.2655 5.73549 -46.955 2 0 -1 -0.00623347 0.0263782 -0.0182956 24.4025 8.81268 21.7637 
4494 281 3 1.008 0.03 1.58468 8.27881 7.32425 99.9494 -40.9035 154.871 2 -1 3 -0.0114273 0.00250574 0.0115431 -4.96987 -2.93745 -0.58517 
1007 63 3 1.008 0.03 1.74652 0.557439 5.43306 1.74652 0.557439 54.6154 0 0 1 -0.00306434 0.0374452 -0.0121459 12.2173 6.72812 -24.6007 
2245 141 2 12.01 0.11 4.69594 1.06773 0.943029 4.69594 1.06773 50.1254 0 0 1 0.000485724 -0.00240731 -0.00616042 -5.69103 11.3554 30.5585 
10118 636 5 32.06 1.02 5.19775 7.78115 0.435248 5.19775 7.78115 49.6176 0 0 1 -0.00113839 -0.00103564 0.000822824 2.18932 2.04736 20.4677 
7929 496 3 1.008 0.03 8.97222 6.87745 3.35437 8.97222 6.87745 52.5367 0 0 1 -0.0127318 0.0102484 0.00362828 17.0698 9.57062 -9.38866 
964 61 2 12.01 0.14 8.7107 1.22189 4.17449 8.7107 1.22189 53.3568 0 0 1 -0.00319406 -0.0101749 0.00786458 11.9434 51.0777 4.68647 
963 61 2 12.01 0.14 8.6127 1.91358 5.60272 8.6127 1.91358 54.7851 0 0 1 0.00447027 0.00138712 -0.00786134 -15.6403 36.0762 -33.5769 
974 61 3 1.008 0.03 9.0398 1.83165 1.53432 9.0398 1.83165 50.7167 0 0 1 -0.031654 -0.0258692 0.00368468 26.7443 2.21518 -7.01892 
7930 496 3 1.008 0.03 9.05013 6.31028 5.1069 9.05013 6.31028 54.2893 0 0 1 -0.0173344 0.00492389 -0.00582246 -18.3513 -4.20917 -44.0619 
7936 496 3 1.008 0.03 10.5119 4.93408 2.88954 10.5119 4.93408 52.0719 0 0 1 0.00715217 -0.00224508 -0.00700222 23.9919 33.7602 -28.1969 
7926 496 2 12.01 0.11 9.97221 4.50066 3.64071 9.97221 4.50066 52.8231 0 0 1 -0.0034273 0.000108529 0.0066924 -28.3706 -22.7379 41.4589 
7935 496 3 1.008 0.03 10.1046 3.47803 3.34829 10.1046 3.47803 52.5306 0 0 1 0.0142872 -0.000994496 0.013728 -2.03111 -13.3813 6.16878 
7934 496 3 1.008 0.03 10.4246 4.65765 4.66046 10.4246 4.65765 53.8428 0 0 1 -0.00217739 0.00950973 0.0230811 -7.11159 -4.60264 -25.6011 
4005 251 2 12.01 0.11 15.5114 6.88872 2.98324 64.6937 56.0711 150.53 1 1 3 0.00615263 0.000429193 -0.000601828 22.1875 22.7156 26.8088 
4013 251 3 1.008 0.03 15.0398 5.96384 2.61587 64.2222 55.1462 150.163 1 1 3 0.00110426 0.019667 -0.031906 -0.51541 8.54348 0.217724 
4012 251 3 1.008 0.03 16.3673 7.21195 2.32606 65.5496 56.3943 149.873 1 1 3 0.00318946 0.0173783 0.0125303 -15.7527 -15.8388 17.6564 
4011 251 3 1.008 0.03 14.8555 7.75746 2.96917 64.0378 56.9398 150.516 1 1 3 -0.0225852 0.00408943 -0.0155604 -9.79123 -6.19058 -9.45188 
366 23 3 1.008 0.03 10.8013 8.01915 2.09105 10.8013 8.01915 -47.0913 0 0 -1 -0.00033386 -0.00835751 0.00349722 -11.8685 -9.011 5.21241 
967 61 3 1.008 0.03 9.52729 2.26832 5.99365 9.52729 2.26832 55.176 0 0 1 0.0239908 0.00611442 -0.0356221 29.3002 -2.58945 -2.63477 
367 23 3 1.008 0.03 12.2742 8.54099 1.41229 12.2742 8.54099 -47.7701 0 0 -1 -0.00304159 0.00298089 -0.0131104 4.18586 0.281437 10.7012 
2054 129 2 12.01 0.11 12.9279 3.69621 6.11961 62.1103 52.8786 55.302 1 1 1 -0.000503396 -0.00122951 -0.00260174 27.8208 -24.6886 -49.5835 
2050 129 1 16 -0.4 12.1925 2.52932 6.18367 61.3748 51.7117 55.366 1 1 1 -0.00172633 0.004327 -0.00477709 -23.7493 2.52453 -20.5644 
4001 251 1 16 -0.4 15.8377 6.83016 4.41009 65.02 56.0125 151.957 1 1 3 0.00371466 -0.00161558 -0.00354328 13.4133 -22.3143 -38.4479 
2063 129 3 1.008 0.03 13.8875 3.54095 5.57911 63.0699 52.7233 54.7615 1 1 1 0.0124673 -0.0115658 0.00271546 -15.703 -0.190083 2.19303 
9617 602 6 16 -0.53 10.4097 8.19139 6.07421 59.592 57.3737 55.2566 1 1 1 -0.00410089 0.00372343 -0.00400273 1.12786 -47.7631 -24.6908 
2064 129 3 1.008 0.03 12.3228 4.38447 5.51969 61.5051 53.5668 54.702 1 1 1 0.00542192 -0.0117748 -0.00715376 9.68095 11.4857 17.1985 
4006 251 2 12.01 0.11 15.3144 6.41952 7.35153 64.4967 55.6019 154.899 1 1 3 -0.00420929 0.0018355 0.00456363 21.5311 74.8009 23.2344 
9641 604 7 12.01 0.35 13.4497 0.85917 1.74069 13.4497 50.0415 1.74069 0 1 0 0.00448016 0.0041532 -0.00181818 -45.3465 0.510699 14.3792 
4007 251 3 1.008 0.03 16.1154 4.72035 4.50079 65.2978 53.9027 152.048 1 1 3 -0.024841 0.0367384 -0.00746587 -2.60137 12.283 -18.4504 
9642 604 8 19 -0.16 13.9825 1.80095 2.46426 13.9825 50.9833 2.46426 0 1 0 0.00372008 0.00374036 0.00179464 -7.13976 13.5593 19.0008 
4003 251 2 12.01 0.14 16.6601 5.66912 4.62793 65.8425 54.8515 152.175 1 1 3 0.000433757 0.000847682 0.00378094 11.617 -21.7592 8.79877 
4002 251 1 16 -0.4 15.9099 5.30693 6.84437 65.0923 54.4893 154.391 1 1 3 -0.00459966 0.00608503 -0.00046446 -17.28 -50.8966 16.2086 
4014 251 3 1.008 0.03 14.9527 7.13396 6.60066 64.1351 56.3163 154.148 1 1 3 0.000710456 0.013459 -0.00291749 -4.43515 -9.87595 1.80565 
5269 330 2 12.01 0.11 16.5029 2.86218 2.26086 65.6853 -46.3202 -46.9215 1 -1 -1 -0.00816658 -0.000863713 0.00400914 -11.8009 -69.3073 28.6951 
2052 129 2 12.01 0.14 12.7082 1.4317 6.85113 61.8905 50.6141 56.0335 1 1 1 -0.00886847 0.00210402 -0.00138548 10.0925 -37.0391 -29.8932 
969 61 3 1.008 0.03 9.77374 1.03712 3.84277 9.77374 1.03712 53.0251 0 0 1 -4.65257e-05 0.0016683 -0.0245239 -23.5036 5.93849 8.15666 
9640 604 6 16 -0.53 11.4376 2.37926 1.11535 11.4376 51.5616 1.11535 0 1 0 0.00258228 -0.00559427 0.00745159 -6.84159 -7.05215 17.8386 
5277 330 3 1.008 0.03 15.5301 3.29665 2.5667 64.7125 -45.8857 -46.6156 1 -1 -1 -0.000546621 0.0182656 0.00422883 19.2371 8.77528 -0.941866 
5917 370 3 1.008 0.03 16.5792 0.992957 5.48009 16.5792 50.1753 5.48009 0 1 0 0.00457444 -0.00994705 0.0136165 11.2109 -0.602145 14.3374 
5275 330 3 1.008 0.03 16.2167 2.20448 1.4143 65.3991 -46.9779 -47.768 1 -1 -1 0.00674542 -0.0119161 0.00716013 11.7728 11.7233 3.82673 
2058 129 3 1.008 0.03 13.8247 1.26481 6.75312 63.007 50.4472 55.9355 1 1 1 0.0101278 0.0203978 0.010247 -28.2351 6.76919 -1.34219 
973 61 3 1.008 0.03 8.88807 4.20773 7.24339 8.88807 4.20773 56.4257 0 0 1 -0.0256412 0.000273056 0.00787061 -36.5428 -12.6547 -30.5993 
2062 129 3 1.008 0.03 13.2469 3.91027 7.06974 62.4292 53.0926 56.2521 1 1 1 -0.00689372 -0.0228013 -0.0013185 1.08386 29.9472 41.5907 
9638 604 5 32.06 1.02 12.3153 1.44838 0.460012 12.3153 50.6307 0.460012 0 1 0 0.000907166 0.00121307 0.00127989 -43.5231 -4.21757 -3.64586 
5905 370 1 16 -0.4 18.5226 0.438201 5.89556 18.5226 49.6205 5.89556 0 1 0 -8.18012e-05 0.00102236 0.000529788 32.9985 18.474 6.48225 
5909 370 2 12.01 0.11 17.211 0.60362 6.31383 17.211 49.786 6.31383 0 1 0 -0.00107281 0.00224076 -0.00231455 -51.8941 -14.2407 -18.1815 
10145 637 8 19 -0.16 24.9827 0.699382 2.01658 -24.1997 49.8817 2.01658 -1 1 0 0.00565682 -0.00496724 -0.00342231 -0.465397 -23.4191 -12.8698 
6696 419 3 1.008 0.03 24.9627 6.95422 1.12834 24.9627 6.95422 -48.054 0 0 -1 -0.0110846 0.0175789 0.0120944 25.9759 1.07829 -1.66276 
4010 251 3 1.008 0.03 17.7389 6.24391 6.49413 66.9212 55.4263 154.041 1 1 3 -0.0204489 -0.00221663 0.00740315 -21.4755 -21.2696 -10.9431 
4008 251 3 1.008 0.03 17.5821 5.63349 3.99233 66.7644 54.8158 151.539 1 1 3 0.0188354 -0.0336118 -0.00644641 -17.9523 4.7691 8.93926 
5912 370 3 1.008 0.03 19.0674 2.32887 6.50579 19.0674 51.5112 6.50579 0 1 0 0.00820537 0.0271578 -0.0327987 5.07419 10.6611 -2.52542 
5267 330 2 12.01 0.14 18.8359 3.16369 1.66526 68.0182 -46.0187 -47.5171 1 -1 -1 0.00838239 -0.00112451 -0.00617957 -5.61862 14.4272 7.88429 
4004 251 2 12.01 0.14 17.0427 5.43412 6.10009 66.225 54.6165 153.647 1 1 3 -0.00748426 -0.00549456 0.00142691 42.8284 62.6734 -9.06403 
5266 330 1 16 -0.4 19.9821 4.3195 3.49412 69.1645 -44.8628 -45.6882 1 -1 -1 -0.00671195 0.00508501 0.000175105 -9.84511 -8.23237 17.0264 
5271 330 3 1.008 0.03 18.9104 2.17576 2.06436 68.0927 -47.0066 -47.118 1 -1 -1 0.0181253 -0.0173817 -0.0310206 8.09155 -8.66665 19.0967 
5911 370 3 1.008 0.03 18.8793 2.07482 4.70683 18.8793 51.2572 4.70683 0 1 0 0.00853915 -0.0152527 0.0094971 -8.11723 10.9943 9.81923 
5914 370 3 1.008 0.03 21.2702 2.16211 5.41732 21.2702 51.3445 5.41732 0 1 0 -0.000637651 -0.0159494 0.00213644 4.50224 1.5626 -11.477 
5273 330 3 1.008 0.03 20.9685 3.68699 1.79709 70.1509 -45.4954 -47.3853 1 -1 -1 0.00337266 0.00297688 -0.00188352 -19.2465 14.5792 3.39455 
5270 330 2 12.01 0.11 21.117 4.93797 4.06615 70.2994 -44.2444 -45.1162 1 -1 -1 -0.000639853 0.00786192 0.00291345 -35.4862 29.086 -43.4878 
5280 330 3 1.008 0.03 21.041 4.87462 5.07408 70.2234 -44.3077 -44.1083 1 -1 -1 0.000942824 -0.030379 -0.00287128 -7.17898 1.39426 52.4346 
5908 370 2 12.01 0.14 20.6529 1.26902 5.35768 20.6529 50.4514 5.35768 0 1 0 8.06213e-05 -0.00342451 0.00398929 4.56124 -4.70496 -28.4821 
5268 330 2 12.01 0.14 19.992 4.15953 2.09961 69.1743 -45.0228 -47.0827 1 -1 -1 -0.000454617 -0.00214479 -0.00220635 1.05331 -28.4373 -31.2129 
5907 370 2 12.01 0.14 19.2353 1.67214 5.65982 19.2353 50.8545 5.65982 0 1 0 0.00066983 0.00659942 -0.00290653 -35.718 -31.1078 -19.0404 
4009 251 3 1.008 0.03 17.5739 4.511 6.21708 66.7562 53.6933 153.764 1 1 3 -0.00271727 0.0196828 -0.0153096 7.84513 -10.9278 -2.95836 
7498 469 3 1.008 0.03 18.8569 7.87103 3.21633 117.222 -41.3113 101.581 2 -1 2 -0.0314118 0.0130019 -0.00228584 -1.38595 -15.6963 0.918741 
10146 637 8 19 -0.16 23.2732 1.7177 2.72977 -25.9092 50.9 2.72977 -1 1 0 -0.00585224 0.00153927 -0.00129951 -16.9957 1.55988 -12.9846 
5278 330 3 1.008 0.03 21.9766 4.40262 3.8619 71.159 -44.7797 -45.3205 1 -1 -1 0.00762609 0.0169339 -0.0136555 35.9294 -12.0285 -16.3823 
10134 637 6 16 -0.53 23.7442 3.39992 6.06642 -25.4381 52.5823 6.06642 -1 1 0 0.00449084 -0.00311173 -0.0025643 15.7907 -18.1129 -7.91461 
6695 419 3 1.008 0.03 23.7211 5.91299 1.6725 23.7211 5.91299 -47.5098 0 0 -1 0.00637206 0.0181159 -0.000722349 -3.6543 17.8313 -8.90384 
5279 330 3 1.008 0.03 21.1192 6.01116 3.78101 70.3015 -43.1712 -45.4013 1 -1 -1 -0.0124645 0.00636417 -0.000861067 9.97021 -13.5678 1.40603 
5274 330 3 1.008 0.03 19.8313 5.11021 1.56463 69.0136 -44.0721 -47.6177 1 -1 -1 -0.00298231 0.0184146 -0.00568687 7.7399 -4.3798 6.748 
5276 330 3 1.008 0.03 16.8253 2.12127 3.09427 66.0076 -47.0611 -46.0881 1 -1 -1 0.00544103 -0.0129893 -0.0142637 -14.3481 33.4799 -31.4804 
10143 637 7 12.01 0.35 24.4592 1.87504 2.19085 -24.7231 51.0574 2.19085 -1 1 0 -0.00558912 -0.00525379 0.00120859 20.4525 36.3453 -6.56633 
6691 419 2 12.01 0.14 23.9123 6.89133 1.1658 23.9123 6.89133 -48.0165 0 0 -1 -0.00128703 -9.1811e-05 -0.00535874 2.40596 -35.4937 8.9045 
6698 419 3 1.008 0.03 23.3382 7.78157 3.06432 23.3382 7.78157 -46.118 0 0 -1 0.0180767 -0.0242436 0.0439679 5.78072 6.39141 -8.62616 
10144 637 8 19 -0.16 24.3899 2.51311 1.00889 -24.7924 51.6955 1.00889 -1 1 0 -0.00427028 -0.000290156 -0.0069279 -9.48804 -15.2027 13.6031 
5265 330 1 16 -0.4 17.5592 3.74173 1.99161 66.7416 -45.4406 -47.1907 1 -1 -1 0.00436121 0.00235105 -0.000944586 13.2263 21.8303 -5.22257 
6692 419 2 12.01 0.14 23.3915 8.05712 1.99525 23.3915 8.05712 -47.1871 0 0 -1 -0.00287365 0.000649548 -0.00617857 -11.3869 -14.6764 -3.59482 
6697 419 3 1.008 0.03 22.3788 8.09105 1.65251 22.3788 8.09105 -47.5298 0 0 -1 -0.0256357 0.0175043 0.00281059 -16.433 13.6299 3.42122 
5916 370 3 1.008 0.03 16.9258 1.0885 7.25346 16.9258 50.2709 7.25346 0 1 0 0.018364 -0.00901333 -0.00124097 16.2444 6.38552 -1.98826 
5913 370 3 1.008 0.03 20.6566 0.827699 4.31707 20.6566 50.01 4.31707 0 1 0 0.0105713 0.0128669 0.0186378 4.68442 15.238 23.2554 
10133 637 5 32.06 1.02 24.6877 2.28399 6.0323 -24.4946 51.4663 6.0323 -1 1 0 0.00454912 0.000928599 -0.00257921 2.37376 50.3822 -26.5949 
10142 637 6 16 -0.53 24.9878 4.13641 3.3239 -24.1946 53.3188 3.3239 -1 1 0 0.00244894 -0.00479526 0.00134108 -9.34346 -7.97037 3.27868 
10135 637 6 16 -0.53 24.3503 1.17886 6.83692 -24.832 50.3612 6.83692 -1 1 0 -0.00286014 0.003117 0.0115341 -3.79884 -38.5895 30.1464 
5272 330 3 1.008 0.03 18.8683 2.89728 0.619708 68.0506 -46.2851 -48.5626 1 -1 -1 0.0180731 0.022567 -0.00384262 1.0436 8.74885 -9.39131 
7503 469 3 1.008 0.03 19.4783 7.89552 0.5768 117.843 -41.2868 98.9415 2 -1 2 0.0300785 -0.00639765 0.00650409 12.0572 -14.1441 -8.71381 
7504 469 3 1.008 0.03 17.9261 8.25673 1.18828 116.291 -40.9256 99.553 2 -1 2 -0.00223963 0.000920753 0.00124606 -19.0047 -1.36024 0.090989 
9849 618 6 16 -0.53 3.84734 16.6583 1.698 53.0297 65.8406 1.698 1 1 0 -0.00894777 -0.00227675 -0.00309225 -28.9549 -30.5275 -9.47658 
359 23 3 1.008 0.03 8.26275 11.5727 1.9345 8.26275 11.5727 -47.2478 0 0 -1 0.00778443 0.0158583 0.0203418 -29.54 10.1283 -3.33668 
3664 229 3 1.008 0.03 1.42009 9.90776 1.96621 1.42009 59.0901 1.96621 0 1 0 -0.0160219 0.00359775 0.00780232 12.2558 9.39121 42.8454 
3654 229 2 12.01 0.11 0.989305 9.4407 1.15747 0.989305 58.623 1.15747 0 1 0 -0.00351214 -0.00559041 -0.0126575 -10.7776 9.66476 -60.3368 
369 24 1 16 -0.4 2.01822 13.446 7.31483 149.565 -35.7364 7.31483 3 -1 0 0.00343897 -8.91414e-05 0.00195024 -22.8474 -6.4844 -21.7203 
10123 636 8 19 -0.16 7.08127 9.40689 1.51669 7.08127 9.40689 50.699 0 0 1 0.00642871 -0.00217308 0.000345623 -17.6418 -7.37131 5.09032 
4482 281 1 16 -0.4 3.40554 9.00747 6.78075 101.77 -40.1749 154.328 2 -1 3 -0.00977947 0.000769428 0.00117756 17.387 5.89772 14.1239 
4484 281 2 12.01 0.14 3.07909 9.35924 5.489 101.444 -39.8231 153.036 2 -1 3 0.0050233 0.00285272 -0.000875639 4.07981 37.9509 -36.4393 
4489 281 3 1.008 0.03 2.08959 9.79726 5.45625 100.454 -39.3851 153.003 2 -1 3 -0.021212 -0.00978558 0.00654997 -4.46293 2.64736 6.17843 
9855 618 5 32.06 1.02 1.10204 13.6865 1.63562 50.2844 62.8689 1.63562 1 1 0 0.00282138 0.00335597 -0.00694074 -35.8965 -4.85375 -51.3354 
4481 281 1 16 -0.4 5.22581 9.86293 4.51271 103.591 -39.3194 152.06 2 -1 3 0.000817439 0.00203135 -0.000720308 -5.59242 -17.6815 -11.2188 
4483 281 2 12.01 0.14 4.07365 10.5055 5.01202 102.438 -38.6768 152.559 2 -1 3 -0.00424475 0.00213556 -0.00484171 -9.83936 -8.61648 7.38715 
4488 281 3 1.008 0.03 3.60042 11.2477 4.32146 101.965 -37.9346 151.869 2 -1 3 -0.0164564 -0.0109584 0.00176548 7.92226 -18.2777 5.10733 
9853 618 8 19 -0.16 4.25326 12.9488 1.79974 53.4356 62.1312 1.79974 1 1 0 -0.000923963 -0.00163255 -0.00372296 4.24378 -3.23346 -7.29021 
4487 281 3 1.008 0.03 4.47812 11.0959 5.84055 102.843 -38.0865 153.388 2 -1 3 -0.0159333 -0.00360067 0.011496 -12.8073 -0.287664 3.41277 
4491 281 3 1.008 0.03 5.75549 11.3519 3.13276 104.12 -37.8305 150.68 2 -1 3 -0.0319719 0.0160468 0.0259951 3.94248 -8.61531 11.4839 
4485 281 2 12.01 0.11 6.16426 10.7465 3.97177 104.529 -38.4359 151.519 2 -1 3 -0.00586194 0.00987996 -0.00450604 14.904 14.9577 -16.8612 
4492 281 3 1.008 0.03 6.49078 11.4119 4.75744 104.855 -37.7704 152.304 2 -1 3 -0.0177909 0.00767244 0.0348032 2.36567 7.19341 2.67535 
4493 281 3 1.008 0.03 7.08654 10.2486 3.61603 105.451 -38.9338 151.163 2 -1 3 0.00132743 0.00376386 -0.0036386 -13.9083 0.468725 5.08017 
9850 618 6 16 -0.53 3.09794 15.1965 3.51736 52.2803 64.3789 3.51736 1 1 0 0.0012852 0.00384973 -0.000883358 4.26565 -0.934108 -32.6304 
9848 618 5 32.06 1.02 3.27637 15.356 2.06813 52.4587 64.5383 2.06813 1 1 0 0.00213737 -0.00471352 -0.00064988 31.2146 46.5538 68.2734 
9847 618 4 14.01 -0.66 2.06982 14.851 1.26376 51.2522 64.0334 1.26376 1 1 0 -0.000767198 0.0016381 0.00674092 -1.33345 -8.8004 -16.4465 
2894 181 3 1.008 0.03 5.59279 14.9695 6.78064 5.59279 14.9695 -42.4017 0 0 -1 -0.0150004 0.0201844 0.0241334 10.5306 0.803882 -28.9426 
2896 181 3 1.008 0.03 5.10956 14.3061 5.16979 5.10956 14.3061 -44.0126 0 0 -1 -0.0222552 0.00629608 -0.0064664 -6.04931 2.34347 0.49987 
9856 618 6 16 -0.53 1.3784 12.7376 2.65235 50.5608 61.92 2.65235 1 1 0 0.00258631 0.00729388 0.000285122 28.0867 -8.50907 20.6125 
2886 181 2 12.01 0.11 5.9222 14.7752 5.71347 5.9222 14.7752 -43.4689 0 0 -1 -0.00222071 0.00180351 0.00706634 29.9166 0.972023 -11.2524 
2895 181 3 1.008 0.03 6.29362 15.6787 5.12354 6.29362 15.6787 -44.0588 0 0 -1 0.00566939 -0.0155469 0.0227518 -25.5966 -19.882 19.532 
381 24 3 1.008 0.03 1.06278 13.9111 5.5531 148.61 -35.2712 5.5531 3 -1 0 -0.0120877 -0.0126925 -0.0219187 -5.68164 5.74214 -18.4952 
9854 618 8 19 -0.16 5.65503 14.4206 2.45793 54.8374 63.6029 2.45793 1 1 0 -0.00153144 0.00347207 0.000485863 -4.31595 -8.40383 -4.92053 
2882 181 1 16 -0.4 7.03117 13.8374 5.63262 7.03117 13.8374 -43.5497 0 0 -1 -0.00461922 0.000952516 -0.00259473 -20.1461 -8.02989 13.2557 
2883 181 2 12.01 0.14 8.27904 15.4485 6.95444 8.27904 15.4485 -42.2279 0 0 -1 0.00725116 0.00272586 0.0014227 63.7321 28.1814 26.0405 
2887 181 3 1.008 0.03 7.66573 16.2386 6.60779 7.66573 16.2386 -42.5746 0 0 -1 -0.00774676 0.00532617 0.0286585 -6.88108 18.3975 -6.12494 
364 23 3 1.008 0.03 8.14062 14.0324 1.92888 8.14062 14.0324 -47.2535 0 0 -1 0.0222603 0.00281171 -0.00974987 -12.8343 -0.963796 -6.44977 
2884 181 2 12.01 0.14 8.33431 14.3361 5.89333 8.33431 14.3361 -43.289 0 0 -1 0.00448782 -0.00223394 0.000669402 9.34898 15.3881 -22.8987 
9857 618 6 16 -0.53 0.550128 13.0482 0.414894 49.7325 62.2305 0.414894 1 1 0 0.000656998 0.00119784 0.00085539 14.6697 24.8782 32.6109 
9851 618 7 12.01 0.35 4.62891 14.2074 1.63528 53.8113 63.3897 1.63528 1 1 0 0.000432689 -0.00228139 0.0115781 -2.45881 1.12736 52.5109 
375 24 3 1.008 0.03 1.81573 15.4809 6.97296 149.363 -33.7015 6.97296 3 -1 0 0.00733898 0.00508103 -0.0164929 6.30833 3.59706 -9.78317 
373 24 2 12.01 0.11 1.106 13.0839 6.22554 148.653 -36.0984 6.22554 3 -1 0 -0.00198122 -0.000907176 -0.0063312 12.7413 -11.5152 46.1574 
379 24 3 1.008 0.03 1.53226 12.2052 5.76241 149.079 -36.9771 5.76241 3 -1 0 0.000688539 -0.00134683 -0.0102602 2.33529 -0.974184 -9.54163 
3663 229 3 1.008 0.03 1.81321 9.36166 0.440068 1.81321 58.544 0.440068 0 1 0 -0.0380395 0.00286852 -0.00411603 -5.27291 -4.07777 2.36497 
2862 179 3 1.008 0.03 7.37775 11.7836 7.41768 7.37775 11.7836 56.6 0 0 1 -0.0180915 -0.00785787 0.000896489 -0.127101 -2.62289 55.4661 
10121 636 7 12.01 0.35 6.33507 9.17414 0.439538 6.33507 9.17414 49.6219 0 0 1 -0.0052934 -0.0016857 0.00312842 46.8966 6.74083 -45.0942 
9852 618 8 19 -0.16 5.11768 14.3563 0.45452 54.3 63.5387 0.45452 1 1 0 -0.00277377 0.00513249 0.00318891 0.27806 0.598136 -34.8224 
9620 602 8 19 -0.16 13.121 9.44279 5.75681 62.3033 58.6251 54.9392 1 1 1 0.000760234 -0.00182502 0.00404229 5.35111 -5.49014 -21.9127 
358 23 2 12.01 0.11 11.5016 8.82602 2.13337 11.5016 8.82602 -47.049 0 0 -1 -0.00119241 -0.00367773 0.00157401 2.32725 16.7622 -28.6487 
368 23 3 1.008 0.03 11.8906 8.94958 3.13401 11.8906 8.94958 -46.0483 0 0 -1 -0.0138688 0.0100018 -0.0019293 6.13067 -0.924829 5.75433 
362 23 3 1.008 0.03 9.15575 9.77476 2.65283 9.15575 9.77476 -46.5295 0 0 -1 0.004803 0.00909308 -0.00384856 17.1717 9.55806 -3.10345 
9621 602 8 19 -0.16 12.8242 10.8133 7.25366 62.0065 59.9956 56.436 1 1 1 -0.00204542 0.00132576 0.00943512 -0.156151 36.6914 9.19108 
2889 181 3 1.008 0.03 8.629 14.7785 4.88822 8.629 14.7785 -44.2941 0 0 -1 -0.000236402 -0.0359385 0.00584123 -2.38765 -9.5184 30.7879 
360 23 3 1.008 0.03 9.60019 11.7411 0.781971 9.60019 11.7411 -48.4004 0 0 -1 0.00107038 -0.0176603 -0.00638404 -9.28214 -1.28591 -19.9437 
9618 602 7 12.01 0.35 12.4491 9.65425 6.84865 61.6315 58.8366 56.031 1 1 1 -0.00114171 -0.00397338 -0.00146715 -27.9426 -41.8986 22.4671 
7499 469 3 1.008 0.03 16.3043 10.0654 5.57276 114.669 -39.1169 103.937 2 -1 2 0.00968267 0.0202457 -0.000470331 -10.6849 -1.12552 8.24855 
9615 602 5 32.06 1.02 10.5537 9.46449 6.64051 59.7361 58.6468 55.8229 1 1 1 0.00177368 -0.000731894 -0.00302508 48.1973 26.6198 40.3451 
357 23 2 12.01 0.11 9.20502 14.131 1.83553 9.20502 14.131 -47.3468 0 0 -1 0.00710739 0.00326473 0.00237114 -4.43387 -5.56157 21.8283 
355 23 2 12.01 0.14 9.29216 11.7382 1.80381 9.29216 11.7382 -47.3785 0 0 -1 -0.00403696 0.00466116 -0.00021161 39.0881 16.745 12.0712 
8098 507 1 16 -0.4 14.1316 13.2996 0.51385 63.3139 13.2996 98.8785 1 0 2 -0.000988991 0.0030403 -0.00426636 -6.37779 -20.3142 -4.24297 
9616 602 6 16 -0.53 10.2351 10.5853 5.81946 59.4175 59.7676 55.0018 1 1 1 0.0108675 0.00258125 -3.75607e-06 -12.2505 19.5756 1.09434 
8100 507 2 12.01 0.14 13.082 12.4798 1.08953 62.2644 12.4798 99.4542 1 0 2 -0.00473939 -0.00126175 0.00591424 18.1368 -15.9532 10.9075 
8105 507 3 1.008 0.03 13.1229 11.3325 0.979914 62.3052 11.3325 99.3446 1 0 2 -0.0279104 0.00912484 0.030929 14.7313 43.2382 9.00214 
365 23 3 1.008 0.03 9.42996 15.0001 2.45238 9.42996 15.0001 -46.73 0 0 -1 0.00152426 -0.0112876 0.00268661 7.92549 0.838169 -3.81781 
354 23 1 16 -0.4 10.9353 10.0306 1.60556 10.9353 10.0306 -47.5768 0 0 -1 -0.00524422 0.00608912 0.00724244 9.97325 -16.5227 -2.41619 
7493 469 2 12.01 0.11 16.2575 10.4379 4.56047 114.622 -38.7445 102.925 2 -1 2 0.000522343 -0.0173418 -0.00108186 10.8768 15.1617 -38.5319 
7501 469 3 1.008 0.03 15.2686 10.4493 4.06827 113.633 -38.7331 102.433 2 -1 2 -0.00254158 -0.0137181 0.0171841 3.77586 -8.90797 16.0767 
361 23 3 1.008 0.03 10.4311 10.7713 3.38415 10.4311 10.7713 -45.7982 0 0 -1 0.0107296 0.00335288 -0.00996684 -1.56224 7.57987 5.50185 
353 23 1 16 -0.4 9.80618 12.9675 2.3496 9.80618 12.9675 -46.8327 0 0 -1 0.00397664 -0.000197286 -0.00309807 -4.41476 -14.9135 9.29089 
356 23 2 12.01 0.14 9.94732 10.5394 2.45128 9.94732 10.5394 -46.7311 0 0 -1 -0.00262822 0.00928995 0.00505608 -15.8584 -17.6104 8.86248 
8103 507 3 1.008 0.03 12.1156 12.5779 2.91928 61.298 12.5779 101.284 1 0 2 -0.0066076 -0.00731459 0.0231947 1.86281 10.5654 -8.03594 
8104 507 3 1.008 0.03 12.9418 14.1186 2.59161 62.1242 14.1186 100.956 1 0 2 -0.00528162 0.019514 -0.00742506 -3.5376 -1.51115 -2.5314 
8099 507 2 12.01 0.14 13.0412 13.0334 2.53888 62.2235 13.0334 100.904 1 0 2 0.0137701 0.00108402 0.000598695 -24.6474 -19.4183 17.5827 
8097 507 1 16 -0.4 13.9957 12.5962 3.50824 63.178 12.5962 101.873 1 0 2 0.00432235 0.00581313 -0.000177036 10.4748 -14.1203 -5.01333 
8107 507 3 1.008 0.03 13.7107 13.675 5.22894 62.8931 13.675 103.594 1 0 2 -0.0160541 -0.00279488 0.00609356 -2.0029 7.58701 -0.562373 
8101 507 2 12.01 0.11 13.5292 12.6737 4.86738 62.7116 12.6737 103.232 1 0 2 0.00119827 0.00680598 0.00414036 47.881 21.6758 -11.7386 
4949 310 2 12.01 0.11 15.4435 16.0288 2.53969 64.6259 16.0288 2.53969 1 0 0 0.0027647 0.00372175 -0.00642327 33.3749 -31.019 19.1136 
8109 507 3 1.008 0.03 14.0323 12.049 5.6024 63.2146 12.049 103.967 1 0 2 0.015912 -0.015947 -0.036834 3.07736 -7.08386 -6.97986 
8108 507 3 1.008 0.03 12.527 12.5175 4.91161 61.7094 12.5175 103.276 1 0 2 0.00803263 0.00261211 -0.0103157 -49.0615 -12.1836 12.1876 
4956 310 3 1.008 0.03 15.7082 15.4038 3.43381 64.8905 15.4038 3.43381 1 0 0 -0.0277295 -0.00555324 0.00756323 -18.1282 16.5172 -10.5501 
4955 310 3 1.008 0.03 14.5847 15.5782 2.04971 63.7671 15.5782 2.04971 1 0 0 -0.00704015 0.00600113 0.0104986 -3.1145 -0.818124 2.20721 
706 45 1 16 -0.4 12.9138 16.3073 4.65354 12.9138 -82.0574 4.65354 0 -2 0 -0.00195773 -0.00284684 -0.00274984 -15.9599 -2.20522 -15.6892 
4945 310 1 16 -0.4 16.6693 15.8482 1.79439 65.8517 15.8482 1.79439 1 0 0 0.000432968 0.000148627 -0.00308855 2.3296 -5.73046 7.09994 
7500 469 3 1.008 0.03 16.572 11.4954 4.51113 114.937 -37.687 102.876 2 -1 2 -0.0132034 0.0131363 0.00426367 -1.89309 -8.53616 8.36918 
711 45 3 1.008 0.03 13.6768 15.352 7.00273 13.6768 -83.0127 7.00273 0 -2 0 -0.000155145 0.0356928 0.00168806 4.88951 -4.54436 -4.31894 
7808 488 3 1.008 0.03 16.6143 12.925 1.76609 65.7967 12.925 1.76609 1 0 0 -0.00351534 -0.00177911 0.0266499 -30.0825 20.3813 9.67716 
2890 181 3 1.008 0.03 9.11591 13.5845 6.13414 9.11591 13.5845 -43.0482 0 0 -1 -0.0200545 0.0228002 -0.00485152 -15.8766 3.32785 -2.2121 
363 23 3 1.008 0.03 9.50903 14.2675 0.825768 9.50903 14.2675 -48.3566 0 0 -1 -0.00336424 0.00882713 0.0188707 1.69898 7.42417 -18.0293 
717 45 3 1.008 0.03 15.6641 16.5611 6.98533 15.6641 -81.8036 6.98533 0 -2 0 0.0170437 -0.000678711 0.00726042 5.2356 6.06141 1.68739 
4947 310 2 12.01 0.14 16.4359 16.1538 0.429651 65.6182 16.1538 0.429651 1 0 0 -0.00650773 -0.000375666 -0.00338332 -31.2029 17.2739 -8.57789 