ITEM: TIMESTEP
1800000
ITEM: NUMBER OF ATOMS
10479
ITEM: BOX BOUNDS pp pp pp
4.0882558190751794e-01 4.9591174418091420e+01
4.0882558190751794e-01 4.9591174418091420e+01
4.0882558190751794e-01 4.9591174418091420e+01
ITEM: ATOMS id mol type mass q x y z xu yu zu ix iy iz vx vy vz fx fy fz 
9331 584 2 12.01 0.14 7.82603 2.75337 5.08438 -41.3563 -46.429 5.08438 -1 -1 0 0.00226176 0.00278455 -0.00403502 13.3169 -23.4165 -18.592 
9337 584 3 1.008 0.03 6.5298 1.41918 4.04644 -42.6525 -47.7632 4.04644 -1 -1 0 0.00305178 -0.0215653 -0.0171666 26.9913 -10.8409 11.0394 
3315 208 2 12.01 0.14 4.30802 7.29015 7.30056 102.673 7.29015 7.30056 2 0 0 -0.000749427 0.00416155 -0.00128096 -7.06587 8.70255 -21.379 
3322 208 3 1.008 0.03 6.33957 7.64783 6.59551 104.704 7.64783 6.59551 2 0 0 -0.0179196 0.0331382 0.0146612 -5.23767 -1.92738 -5.08074 
9332 584 2 12.01 0.14 7.59358 1.36743 4.43851 -41.5888 -47.8149 4.43851 -1 -1 0 -0.0112518 0.000365021 0.00324001 -43.1538 21.6524 -24.4184 
7081 443 3 1.008 0.03 1.20093 1.56747 3.61119 1.20093 1.56747 -45.5712 0 0 -1 -0.0227261 -0.0264398 -0.00227903 22.2025 25.2094 -41.784 
7073 443 1 16 -0.4 3.59888 3.79706 3.13304 3.59888 3.79706 -46.0493 0 0 -1 0.0055994 -0.00454765 0.00129483 13.963 36.8378 -26.7917 
7082 443 3 1.008 0.03 1.11671 3.2331 3.30947 1.11671 3.2331 -45.8729 0 0 -1 -0.00490703 0.00886023 0.00424616 -3.22335 26.397 11.2128 
7079 443 3 1.008 0.03 3.75466 1.74027 2.79605 3.75466 1.74027 -46.3863 0 0 -1 -0.0251014 0.0245547 0.0214697 18.0066 -16.4538 -22.2358 
7076 443 2 12.01 0.14 1.68135 2.41113 2.97154 1.68135 2.41113 -46.2108 0 0 -1 -0.00234376 -0.000892008 -0.0063993 -8.51312 -51.8004 19.3953 
7075 443 2 12.01 0.14 3.2011 2.47803 3.28595 3.2011 2.47803 -45.8964 0 0 -1 -0.00648127 0.00882436 0.00461128 -11.909 12.4603 63.6455 
9333 584 2 12.01 0.11 7.12628 4.30962 6.61441 -42.0561 -44.8727 6.61441 -1 -1 0 0.00328354 -0.00685154 0.00406526 -41.072 17.4207 34.121 
9650 604 8 19 -0.16 8.53684 6.34037 4.35123 8.53684 55.5227 4.35123 0 1 0 0.0046471 0.00446347 0.00366279 -0.555894 3.82629 12.6636 
7080 443 3 1.008 0.03 3.44723 2.351 4.38369 3.44723 2.351 -44.7987 0 0 -1 0.00587843 -0.00215518 -0.018706 -15.5757 -6.54437 -26.4601 
9329 584 1 16 -0.4 6.99279 2.95516 6.18733 -42.1896 -46.2272 6.18733 -1 -1 0 -0.00281822 0.00352339 -0.00887261 -3.46849 14.9597 -1.21888 
3324 208 3 1.008 0.03 3.23062 4.40379 5.87473 101.595 4.40379 5.87473 2 0 0 -0.0167941 -0.00524689 0.0112195 -1.89053 10.6421 -0.100434 
7077 443 2 12.01 0.11 5.0049 4.12189 3.20497 5.0049 4.12189 -45.9774 0 0 -1 -0.00280636 -0.0093037 -0.00602483 -15.8856 20.6948 16.5876 
7074 443 1 16 -0.4 1.51646 2.37789 1.54563 1.51646 2.37789 -47.6367 0 0 -1 0.000659031 0.00277975 -0.00450378 30.562 -2.45685 19.4764 
7085 443 3 1.008 0.03 5.29332 4.08425 4.25704 5.29332 4.08425 -44.9253 0 0 -1 -0.0268442 0.0127777 0.0324261 7.74964 -12.5441 -4.43737 
9339 584 3 1.008 0.03 6.74799 5.04712 5.90582 -42.4344 -44.1352 5.90582 -1 -1 0 0.00745518 -0.0203854 -0.0243869 -0.382911 -5.78401 -6.2619 
3323 208 3 1.008 0.03 3.52163 5.97051 5.15391 101.886 5.97051 5.15391 2 0 0 -0.00881279 -0.0135219 -0.0119516 8.67574 -2.4823 -12.4184 
3313 208 1 16 -0.4 4.0944 5.861 7.09804 102.459 5.861 7.09804 2 0 0 -0.00330703 -0.00101433 -0.00139256 7.32544 14.1089 3.32606 
3317 208 2 12.01 0.11 3.1942 5.48779 6.05119 101.559 5.48779 6.05119 2 0 0 -0.00260296 -0.00228409 -0.0058216 -9.88021 17.8091 -3.71336 
9032 565 3 1.008 0.03 4.27745 1.73876 6.7213 4.27745 -96.6259 105.086 0 -2 2 0.0133987 -0.00843542 -0.00256622 19.0198 2.42959 -52.3327 
9335 584 3 1.008 0.03 7.68115 3.53286 4.28232 -41.5012 -45.6495 4.28232 -1 -1 0 -0.0126135 -0.0116733 0.0120695 13.9971 -12.2229 21.5055 
9338 584 3 1.008 0.03 8.24449 1.10993 3.59016 -40.9379 -48.0724 3.59016 -1 -1 0 0.00848752 -0.00359496 -0.00647224 -1.4968 12.3148 2.56093 
2155 135 3 1.008 0.03 7.91069 5.67289 1.84714 7.91069 54.8552 100.212 0 1 2 0.00217376 0.0189873 0.00271176 -22.319 8.82081 13.0922 
2145 135 1 16 -0.4 8.1728 3.76845 1.10882 8.1728 52.9508 99.4735 0 1 2 0.000629143 0.00299055 -0.00372533 -11.351 14.3381 -9.52407 
9341 584 3 1.008 0.03 8.07659 4.71213 6.95075 -41.1058 -44.4702 6.95075 -1 -1 0 0.0132975 0.0124778 0.0182068 9.99527 -13.1412 -1.89089 
8391 525 3 1.008 0.03 3.38435 7.85509 0.461729 101.749 106.22 -97.903 2 2 -2 0.0167934 -0.00752874 0.00472197 4.10557 -2.84667 -11.6809 
9026 565 1 16 -0.4 1.7112 0.968936 6.71704 1.7112 -97.3958 105.082 0 -2 2 0.00630238 0.00232153 0.00589419 7.50271 -7.65492 -6.23597 
7083 443 3 1.008 0.03 5.63851 3.63353 2.50444 5.63851 3.63353 -46.6779 0 0 -1 0.0110049 -0.00529507 -0.00108676 8.11724 -23.9697 -4.3337 
3316 208 2 12.01 0.14 5.34264 8.06953 6.40985 103.707 8.06953 6.40985 2 0 0 0.00449031 0.000160427 0.000382358 4.38623 -51.1977 -11.6044 
3314 208 1 16 -0.4 4.96194 7.89086 5.04325 103.327 7.89086 5.04325 2 0 0 -0.00109328 0.00347876 0.00554732 -21.0988 -17.878 21.2092 
3318 208 2 12.01 0.11 5.771 8.43426 4.08004 104.136 8.43426 4.08004 2 0 0 0.00124777 0.00598136 -0.00171179 19.8819 1.8826 -37.448 
3326 208 3 1.008 0.03 5.64954 7.93186 3.09193 104.014 7.93186 3.09193 2 0 0 -0.00434347 -0.00793493 -0.0138318 -7.84651 7.36657 16.4235 
3328 208 3 1.008 0.03 6.84093 8.28168 4.2527 105.206 8.28168 4.2527 2 0 0 0.0129447 -0.0105166 0.0090487 -2.58619 8.89175 8.36216 
8396 525 3 1.008 0.03 0.847903 6.11151 0.813964 99.2126 104.476 -97.5507 2 2 -2 -0.0151235 0.0338199 0.00819616 -16.8564 0.916954 -0.811201 
8395 525 3 1.008 0.03 2.41245 5.62102 1.1766 100.777 103.986 -97.1881 2 2 -2 -0.0128997 0.00613866 -0.00247528 13.564 -0.630363 -2.58978 
3679 230 3 1.008 0.03 1.31666 8.59341 3.60538 50.499 8.59341 52.7877 1 0 1 -0.0155889 0.00230555 -0.0298838 19.3156 -4.65392 -7.1491 
2153 135 3 1.008 0.03 7.60027 1.42192 0.990105 7.60027 50.6043 99.3548 0 1 2 0.0110986 0.00222339 0.00253832 -30.249 1.62625 15.1632 
7084 443 3 1.008 0.03 5.27348 5.15969 2.96214 5.27348 5.15969 -46.2202 0 0 -1 0.00590802 -0.00508684 0.0172939 -17.2071 -1.99414 0.437642 
9028 565 2 12.01 0.14 2.19405 2.1177 7.35559 2.19405 -96.247 105.72 0 -2 2 0.00449921 -0.00811226 0.0017827 51.7549 27.2295 7.81784 
3325 208 3 1.008 0.03 2.15183 5.89446 6.09409 100.517 5.89446 6.09409 2 0 0 0.00563352 0.0054479 -0.0026877 17.3034 -13.4724 13.1529 
3319 208 3 1.008 0.03 3.35673 7.807 7.27452 101.721 7.807 7.27452 2 0 0 0.0108994 -0.0166451 0.00108837 -5.53221 0.173407 -1.98944 
9034 565 3 1.008 0.03 2.00116 2.94616 6.66262 2.00116 -95.4185 105.027 0 -2 2 -0.0051209 -0.0160747 0.00174825 0.148945 -3.99025 7.86945 
2148 135 2 12.01 0.14 8.47149 1.58496 0.438961 8.47149 50.7673 98.8037 0 1 2 0.00124357 -0.00405593 0.00150342 35.709 -3.96319 -21.7325 
9336 584 3 1.008 0.03 8.81086 2.62848 5.54621 -40.3715 -46.5539 5.54621 -1 -1 0 0.00479048 -0.00943398 0.00445481 6.25144 19.3388 -13.0946 
4012 251 3 1.008 0.03 13.6581 0.792627 0.799169 62.8405 49.975 148.346 1 1 3 0.00607518 0.00142343 -0.0222839 14.9608 -2.45296 0.471712 
2157 135 3 1.008 0.03 9.43011 5.47913 1.14591 9.43011 54.6615 99.5106 0 1 2 0.0167832 0.014671 0.00714144 -6.54915 -16.4153 7.94161 
3106 195 1 16 -0.4 12.4425 1.02134 6.13996 12.4425 50.2037 55.3223 0 1 1 0.000454376 -0.00334286 -0.00178901 9.19572 39.8791 -28.8749 
2156 135 3 1.008 0.03 9.05029 4.49958 2.65146 9.05029 53.6819 101.016 0 1 2 0.0228463 -0.00664906 0.00343764 0.188725 23.7498 5.39031 
9649 604 8 19 -0.16 9.34932 7.14597 6.22796 9.34932 56.3283 6.22796 0 1 0 -0.000570341 0.000150342 -0.00426686 -8.99165 -14.2612 -10.982 
3111 195 3 1.008 0.03 13.6332 3.55479 5.67983 13.6332 52.7371 54.8622 0 1 1 -0.0086353 -0.0398254 0.0189052 -20.2079 -3.64449 -1.70356 
3114 195 3 1.008 0.03 13.9341 1.69375 7.22946 13.9341 50.8761 56.4118 0 1 1 -0.00824734 -0.00080775 0.0269385 5.86206 3.85414 23.7458 
3105 195 1 16 -0.4 15.5037 3.05075 5.78972 15.5037 52.2331 54.9721 0 1 1 -0.000922202 0.00235858 -0.00511027 14.0874 -24.9414 -7.5258 
3107 195 2 12.01 0.14 14.1797 2.66897 5.40308 14.1797 51.8513 54.5854 0 1 1 0.00289637 0.00015179 -0.00396597 7.38819 2.89863 18.461 
5125 321 2 12.01 0.11 15.2212 5.50336 1.73784 15.2212 54.6857 1.73784 0 1 0 1.5647e-05 -0.00401767 -0.00927111 1.79658 47.8667 -26.5605 
5132 321 3 1.008 0.03 15.3156 5.42847 0.60238 15.3156 54.6108 0.60238 0 1 0 -0.00754949 0.0233547 -0.00824482 -1.75622 -4.3608 34.4299 
9651 604 8 19 -0.16 10.4208 5.632 5.10897 10.4208 54.8143 5.10897 0 1 0 0.00213007 -0.000735384 -0.00685669 -14.2666 10.2212 0.950351 
5133 321 3 1.008 0.03 15.1414 4.61572 2.25501 15.1414 53.7981 2.25501 0 1 0 0.0128735 -0.0193759 0.00437764 -15.5665 -44.5064 1.89091 
3112 195 3 1.008 0.03 13.9909 2.40645 4.37804 13.9909 51.5888 53.5604 0 1 1 0.0188027 -0.0203731 0.0152806 8.12199 8.20712 -14.8887 
9648 604 7 12.01 0.35 9.64125 6.72021 4.99313 9.64125 55.9026 4.99313 0 1 0 0.000530907 0.00229771 0.00285092 28.4198 2.23978 7.52605 
9646 604 6 16 -0.53 11.8631 8.14761 4.69093 11.8631 57.33 4.69093 0 1 0 0.00408372 -0.00269912 -0.00249228 -3.35883 -17.509 -25.9081 
5131 321 3 1.008 0.03 14.296 6.0643 1.97822 14.296 55.2466 1.97822 0 1 0 -0.00425164 -0.0170671 -0.0154012 12.9892 -2.16723 -2.89093 
3108 195 2 12.01 0.14 13.8017 1.43347 6.21625 13.8017 50.6158 55.3986 0 1 1 -0.00196007 -0.00536465 0.00114609 9.92403 -32.3646 5.71917 
3109 195 2 12.01 0.11 15.9209 4.33656 5.40278 15.9209 53.5189 54.5851 0 1 1 -0.00261483 -0.00290189 0.00154751 -35.146 31.228 9.10051 
3116 195 3 1.008 0.03 15.5722 5.02176 6.22145 15.5722 54.2041 55.4038 0 1 1 0.0233059 0.0168974 -0.00225516 0.855155 -10.8875 -20.6245 
5121 321 1 16 -0.4 16.3805 6.03845 2.37832 16.3805 55.2208 2.37832 0 1 0 0.000513786 0.00713413 -0.000806502 -9.99546 -2.84245 -7.78901 
3115 195 3 1.008 0.03 15.3835 4.59316 4.45188 15.3835 53.7755 53.6342 0 1 1 -0.0120428 0.0199584 0.0248827 20.5635 2.94654 16.7879 
9647 604 6 16 -0.53 10.3358 7.62955 2.70232 10.3358 56.8119 2.70232 0 1 0 -0.00121159 -0.000324814 -5.45218e-05 30.9904 2.39155 22.8178 
9645 604 5 32.06 1.02 10.5364 8.0474 4.09241 10.5364 57.2297 4.09241 0 1 0 0.00170102 -0.000551512 -0.00106094 -21.7568 -6.33853 -36.4607 
7924 496 2 12.01 0.14 15.4432 8.36291 6.62772 15.4432 8.36291 55.8101 0 0 1 0.00176706 -0.00457722 -0.000372956 -16.9498 -4.09506 15.1763 
7930 496 3 1.008 0.03 14.8987 7.67686 6.03721 14.8987 7.67686 55.2196 0 0 1 -0.00730786 -0.0227145 0.000645904 -9.85229 -11.0525 -21.3498 
1063 67 3 1.008 0.03 11.6819 6.51225 6.92013 11.6819 6.51225 56.1025 0 0 1 -0.00448323 -0.00686048 -0.0176675 -5.58749 1.31918 -4.16901 
1059 67 2 12.01 0.14 12.4217 5.79803 7.25566 12.4217 5.79803 56.438 0 0 1 0.00182497 0.00225969 -0.00172071 13.6692 -19.2554 -9.14378 
2149 135 2 12.01 0.11 8.6536 4.93289 1.72429 8.6536 54.1152 100.089 0 1 2 -0.00802813 0.00446102 0.00304212 31.7664 -10.6239 -9.87085 
2152 135 3 1.008 0.03 9.79954 2.73822 1.65239 9.79954 51.9206 100.017 0 1 2 0.00764308 -0.0179564 0.00674653 14.9721 -10.393 24.41 
973 61 3 1.008 0.03 14.177 8.46709 2.79943 14.177 8.46709 51.9818 0 0 1 0.00173559 0.00211545 -0.00670329 -2.77469 -8.18999 1.64994 
968 61 3 1.008 0.03 16.402 8.58594 1.88836 16.402 8.58594 51.0707 0 0 1 -0.00195263 0.0167372 0.0306311 -12.7316 -10.2228 -34.683 
2147 135 2 12.01 0.14 9.19776 2.86964 0.804264 9.19776 52.052 99.169 0 1 2 0.00554396 -0.00157578 0.00239018 -27.2182 -4.06236 2.25967 
1064 67 3 1.008 0.03 12.9989 5.50498 6.39284 12.9989 5.50498 55.5752 0 0 1 0.0099924 -0.0142375 -0.0279211 -3.01513 -3.79367 -7.93018 
1065 67 3 1.008 0.03 11.5825 3.72251 7.30374 11.5825 3.72251 56.4861 0 0 1 0.0217024 -0.00952863 0.0282417 4.10811 -1.68457 -14.8324 
3113 195 3 1.008 0.03 14.5075 0.584468 6.03726 14.5075 49.7668 55.2196 0 1 1 -0.0165021 -0.0304673 0.00628091 -13.4163 13.866 -2.03411 
2146 135 1 16 -0.4 9.30697 0.496427 0.699574 9.30697 49.6788 99.0643 0 1 2 0.00249595 -0.00343769 0.00305396 1.26926 -13.3663 -2.41056 
4011 251 3 1.008 0.03 15.4293 1.08458 0.532995 64.6117 50.2669 148.08 1 1 3 -0.0111135 -0.00896129 0.00324229 11.3144 -7.36563 7.0734 
7570 474 1 16 -0.4 18.9167 0.854255 4.49239 18.9167 -48.3281 -44.69 0 -1 -1 -0.00227101 -0.0021314 0.00679998 -6.24457 10.437 -18.5072 
7584 474 3 1.008 0.03 17.7236 1.78091 3.03339 17.7236 -47.4014 -46.149 0 -1 -1 -0.00952194 0.0132876 0.00405011 7.11838 -0.589478 -0.0358583 
5127 321 3 1.008 0.03 17.2715 4.18952 2.08321 17.2715 53.3719 2.08321 0 1 0 -0.012179 0.00205969 0.00726535 6.10285 21.91 -14.2802 
967 61 3 1.008 0.03 16.8663 8.19337 3.4845 16.8663 8.19337 52.6668 0 0 1 0.0147125 -0.00654595 0.0121406 -6.24015 -3.61327 -5.95387 
7934 496 3 1.008 0.03 17.4118 7.03054 5.34613 17.4118 7.03054 54.5285 0 0 1 0.00123663 -0.0116066 0.0385003 -8.05071 -7.14585 1.92572 
3117 195 3 1.008 0.03 16.9936 4.53895 5.4025 16.9936 53.7213 54.5848 0 1 1 0.00541631 -0.00578674 0.00702619 -2.27817 -10.1397 -7.38444 
5123 321 2 12.01 0.14 17.5081 5.28578 1.97014 17.5081 54.4681 1.97014 0 1 0 0.0100285 -0.000283434 0.0096749 -19.002 -7.34501 -36.1351 
5128 321 3 1.008 0.03 17.7215 5.62567 0.885598 17.7215 54.808 0.885598 0 1 0 0.0120911 0.0156406 0.0082155 -3.31596 -27.1441 43.2871 
5135 321 3 1.008 0.03 20.8116 7.89488 2.24991 20.8116 57.0772 2.24991 0 1 0 0.00808334 -8.71536e-05 -0.0274284 0.869813 11.1282 0.749175 
7926 496 2 12.01 0.11 17.6077 7.83828 6.03675 17.6077 7.83828 55.2191 0 0 1 -0.0029241 -0.00701224 -0.00422771 13.0827 -11.8794 -25.9429 
5124 321 2 12.01 0.14 18.6238 5.52448 2.9252 18.6238 54.7068 2.9252 0 1 0 -0.00133559 -0.00490679 -0.000671855 23.1941 -11.0252 -14.3497 
5129 321 3 1.008 0.03 18.2739 5.49158 3.91281 18.2739 54.6739 3.91281 0 1 0 0.0184473 0.00717372 -0.00780615 -1.93824 -10.3154 25.9889 
5130 321 3 1.008 0.03 19.4074 4.78614 2.71471 19.4074 53.9685 2.71471 0 1 0 0.0224718 -0.0190728 -0.0462067 -2.07904 3.51146 6.71348 
5136 321 3 1.008 0.03 20.6584 7.23359 3.96365 20.6584 56.4159 3.96365 0 1 0 0.00713029 0.0246883 0.00359655 -2.08154 10.7706 -15.1143 
5122 321 1 16 -0.4 19.065 6.80123 2.70932 19.065 55.9836 2.70932 0 1 0 -0.00510045 0.00382313 -0.000305432 18.594 41.6322 -16.8683 
9764 612 8 19 -0.16 23.6177 2.32584 2.2311 -25.5646 51.5082 2.2311 -1 1 0 -0.00309581 6.25583e-05 0.00123261 -4.92136 -10.932 -13.9755 
5126 321 2 12.01 0.11 20.4617 7.09393 2.87998 20.4617 56.2763 2.87998 0 1 0 0.00877187 0.00406171 0.00280582 12.384 -60.7837 27.0487 
9763 612 8 19 -0.16 23.4368 4.10153 3.34334 -25.7455 53.2839 3.34334 -1 1 0 0.000848657 -0.00204655 -0.00691723 34.4814 -22.194 -32.6854 
9770 612 8 19 -0.16 22.7214 1.85599 6.1409 -26.4609 51.0383 6.1409 -1 1 0 0.000290323 0.00115538 0.00299485 -4.11752 -3.04336 -9.36641 
176 11 3 1.008 0.03 19.2396 4.24539 6.0226 117.604 53.4277 104.387 2 1 2 0.00919348 0.000228197 0.0322551 6.41792 -3.94433 3.55619 
9768 612 7 12.01 0.35 23.7737 1.1852 6.56563 -25.4087 50.3675 6.56563 -1 1 0 0.00168467 0.00761677 0.00136172 1.995 20.3808 72.1547 
166 11 2 12.01 0.11 20.2662 4.33849 6.40005 118.631 53.5208 104.765 2 1 2 -0.00543969 -0.00807533 -0.00304908 -24.0403 -11.2628 34.7944 
8647 541 3 1.008 0.03 24.7039 6.93072 5.77269 -24.4784 -42.2516 5.77269 -1 -1 0 -0.00615874 0.0208198 0.00637535 2.75054 -0.546198 -11.1437 
7935 496 3 1.008 0.03 18.545 8.1839 5.66744 18.545 8.1839 54.8498 0 0 1 0.0090734 0.0106588 0.0175995 11.5477 14.4898 -6.67289 
174 11 3 1.008 0.03 20.8646 3.5567 6.01332 119.229 52.739 104.378 2 1 2 0.0174005 0.00391965 -0.000390749 10.5539 -16.869 -10.3366 
169 11 3 1.008 0.03 22.6061 6.4807 6.11036 120.971 55.663 104.475 2 1 2 0.0257147 0.0256198 -0.010535 -22.3693 0.781376 7.12757 
5134 321 3 1.008 0.03 21.1201 6.19201 2.67283 21.1201 55.3744 2.67283 0 1 0 -0.0184326 0.00319055 -0.033668 -19.7959 24.7979 -3.04688 
9762 612 8 19 -0.16 24.4961 4.06206 1.43303 -24.6863 53.2444 1.43303 -1 1 0 -0.000799639 -0.00298076 -0.00239705 1.50789 18.4593 -18.5424 
9761 612 7 12.01 0.35 24.2999 3.40132 2.52789 -24.8824 52.5837 2.52789 -1 1 0 -0.00171056 0.00206217 0.00325533 -23.2686 10.7209 66.726 
8645 541 2 12.01 0.11 24.1901 6.97326 3.14236 -24.9922 -42.2091 3.14236 -1 -1 0 0.00845134 -0.00217252 -0.00808228 -20.5547 9.29273 25.6828 
8651 541 3 1.008 0.03 23.7669 6.06052 3.57947 -25.4155 -43.1218 3.57947 -1 -1 0 -0.00646466 0.0113349 0.00983931 7.08811 14.6847 7.18709 
8652 541 3 1.008 0.03 23.4917 7.21956 2.37174 -25.6907 -41.9628 2.37174 -1 -1 0 0.00340584 -0.00307016 -0.00509789 -1.35254 1.64355 -13.619 
8641 541 1 16 -0.4 24.2435 8.10666 4.01425 -24.9389 -41.0757 4.01425 -1 -1 0 0.000123056 -0.00363448 0.00374062 19.9709 -28.7447 20.5649 
162 11 1 16 -0.4 20.7488 5.54891 5.98245 119.113 54.7313 104.347 2 1 2 0.00208428 0.000185057 0.00657143 19.5161 36.7337 2.45297 
7936 496 3 1.008 0.03 17.8937 7.41338 6.97441 17.8937 7.41338 56.1568 0 0 1 0.00248272 -0.0227264 0.0301056 -9.57435 0.408608 20.6028 
7574 474 2 12.01 0.11 18.4276 1.9973 3.84853 18.4276 -47.185 -45.3338 0 -1 -1 -0.00452999 0.0034102 -0.0019354 -1.02397 28.2228 -4.85684 
7583 474 3 1.008 0.03 19.2129 2.69686 3.48028 19.2129 -46.4855 -45.7021 0 -1 -1 0.0173025 0.00474224 -0.00893702 -7.82808 -16.8152 6.25443 
7582 474 3 1.008 0.03 17.8508 2.54779 4.5959 17.8508 -46.6346 -44.5864 0 -1 -1 -0.00444893 -0.00274796 -0.0276447 2.8855 2.03758 -3.85308 
170 11 3 1.008 0.03 22.5132 5.17383 7.05518 120.878 54.3562 105.42 2 1 2 0.000193992 0.00287364 -0.0083789 -1.93024 -11.3542 15.1327 
7578 474 3 1.008 0.03 17.0596 0.562065 5.42427 17.0596 -48.6203 -43.7581 0 -1 -1 -0.014282 -0.0019798 -0.0157486 12.8142 -4.81202 -7.77626 
164 11 2 12.01 0.14 21.8667 5.98933 6.7837 120.231 55.1717 105.148 2 1 2 -0.00406863 0.00164858 0.0022098 11.9979 14.9055 -33.5657 
8231 515 3 1.008 0.03 17.6656 3.26888 7.40484 116.03 52.4512 -41.7775 2 1 -1 0.0117501 0.00555346 -0.010351 9.34082 -1.82578 -30.5029 
3784 237 3 1.008 0.03 7.95714 15.5481 0.799485 7.95714 64.7304 0.799485 0 1 0 -0.00390667 0.0395491 0.00235911 -19.7899 -11.3501 14.2961 
3321 208 3 1.008 0.03 5.47514 9.08374 6.66372 103.84 9.08374 6.66372 2 0 0 -0.00859456 0.00856557 -0.00323522 -7.27336 25.7366 6.29782 
3327 208 3 1.008 0.03 5.46159 9.47309 3.9506 103.826 9.47309 3.9506 2 0 0 0.0128467 0.00198627 0.0240262 10.8326 2.12239 0.322124 
8064 504 3 1.008 0.03 2.81994 12.6107 6.26982 52.0023 61.7931 104.635 1 1 2 0.00440828 0.00123679 -0.0276167 1.38884 -3.19624 -2.76637 
8063 504 3 1.008 0.03 3.02917 10.9037 5.79302 52.2115 60.086 104.158 1 1 2 0.00128337 -0.0144585 -0.0214677 0.714131 8.0834 15.7144 
2870 180 2 12.01 0.11 8.35895 10.3456 1.51313 8.35895 59.5279 -47.6692 0 1 -1 0.0101048 0.00324801 -0.000966246 9.29469 -20.5647 -35.9043 
9862 619 4 14.01 -0.66 1.63548 16.5389 3.38961 1.63548 65.7212 3.38961 0 1 0 -0.00567898 -0.00306008 -0.00331082 2.0247 47.0251 15.2635 
9863 619 5 32.06 1.02 2.61632 15.4588 2.88031 2.61632 64.6411 2.88031 0 1 0 -0.000127622 0.000761608 0.00344533 38.6579 -25.5611 5.61529 
3780 237 2 12.01 0.14 6.88833 13.8271 1.65423 6.88833 63.0094 1.65423 0 1 0 -0.000479738 -0.00722148 0.00344364 5.36571 33.8201 18.1751 
3792 237 3 1.008 0.03 5.36066 12.4957 4.38293 5.36066 61.6781 4.38293 0 1 0 0.00291249 0.0100839 0.0114281 8.51783 1.70913 -27.9087 
3790 237 3 1.008 0.03 5.42583 11.8999 2.6085 5.42583 61.0822 2.6085 0 1 0 -0.0138933 0.0149635 -0.0203883 -2.04639 3.21532 11.7731 
3778 237 1 16 -0.4 6.18841 13.8978 2.86785 6.18841 63.0801 2.86785 0 1 0 -0.00455659 0.00848851 -0.00225594 -32.6462 -41.29 39.7959 
3649 229 1 16 -0.4 5.55459 15.0679 5.77272 5.55459 64.2503 5.77272 0 1 0 -0.00319365 0.00757492 -0.00264911 -17.4814 -8.24609 0.0858103 
10466 677 9 24.305 2 6.03713 15.6731 3.97247 6.03713 64.8555 3.97247 0 1 0 -0.00353698 -0.000843833 0.000597933 -11.927 -17.7472 -8.20513 
3777 237 1 16 -0.4 6.50751 16.2381 2.10387 6.50751 65.4204 2.10387 0 1 0 -0.00229027 0.00445693 0.00209463 -13.1755 9.96291 16.3744 
3782 237 2 12.01 0.11 5.90631 12.5146 3.39137 5.90631 61.697 3.39137 0 1 0 -0.00440284 -0.00390912 -0.00148182 13.7329 44.588 -6.07725 
3791 237 3 1.008 0.03 6.8961 12.0894 3.57342 6.8961 61.2717 3.57342 0 1 0 -0.00661941 0.0139429 0.0260003 -5.21208 -4.92103 3.6934 
9864 619 6 16 -0.53 3.96833 15.4367 3.44912 3.96833 64.6191 3.44912 0 1 0 -0.00428621 0.00412415 -0.00784989 1.67177 14.6339 -4.35338 
3779 237 2 12.01 0.14 6.92008 15.2729 1.15137 6.92008 64.4553 1.15137 0 1 0 -0.00202996 -0.0035268 0.00487891 35.563 14.2455 -51.5038 
9865 619 6 16 -0.53 1.98998 14.186 2.79656 1.98998 63.3683 2.79656 0 1 0 -0.00115047 0.00385198 0.00233209 -11.951 -21.5266 2.79741 
3785 237 3 1.008 0.03 6.51877 13.1687 0.923796 6.51877 62.3511 0.923796 0 1 0 -0.0442205 -0.00199376 -0.0132279 -13.959 -18.0169 -16.8873 
9866 619 7 12.01 0.35 2.99327 15.7662 1.10642 2.99327 64.9486 1.10642 0 1 0 0.000868306 0.00123283 -0.00533097 -20.2159 0.336993 -36.5585 
9868 619 8 19 -0.16 3.63348 14.7199 0.53434 3.63348 63.9022 0.53434 0 1 0 -0.00608749 0.00244727 -0.00629141 0.772839 24.7319 15.5361 
2880 180 3 1.008 0.03 8.37217 10.9971 2.33603 8.37217 60.1795 -46.8463 0 1 -1 0.0116444 0.00769396 -0.0141205 -3.92406 14.5024 20.1245 
3652 229 2 12.01 0.14 7.83397 14.5082 5.9502 7.83397 63.6905 5.9502 0 1 0 0.000281517 0.00234003 -0.00152553 9.96346 1.34391 -11.8397 
3786 237 3 1.008 0.03 7.85835 13.5055 1.9535 7.85835 62.6879 1.9535 0 1 0 0.000942687 -0.0130788 -0.012218 18.3083 -6.44537 -5.14258 
3650 229 1 16 -0.4 7.76852 15.0619 4.65408 7.76852 64.2443 4.65408 0 1 0 -0.00547314 0.00622274 0.00130325 17.4872 11.2627 -14.6859 
3658 229 3 1.008 0.03 7.84803 13.4077 5.8367 7.84803 62.59 5.8367 0 1 0 -0.0108443 -0.0109153 -0.0127557 4.61649 11.7189 6.89739 
3651 229 2 12.01 0.14 6.62375 14.9972 6.71139 6.62375 64.1795 6.71139 0 1 0 0.00192359 0.00347069 -0.00166717 17.0851 49.8513 -13.4107 
3653 229 2 12.01 0.11 4.31192 15.1579 6.50198 4.31192 64.3402 6.50198 0 1 0 -0.00573383 0.000577481 -0.00247417 10.2871 -22.5751 30.0278 
9639 604 6 16 -0.53 8.49276 10.8975 5.89073 8.49276 60.0799 5.89073 0 1 0 0.000832794 0.000649269 -0.00141171 42.7747 -17.1916 -35.4968 
8054 504 2 12.01 0.11 3.27723 11.6643 6.57128 52.4596 60.8466 104.936 1 1 2 0.00493299 -0.00376802 -0.0035196 1.83494 -2.96474 0.66825 
3659 229 3 1.008 0.03 3.38251 15.0729 5.95624 3.38251 64.2552 5.95624 0 1 0 -0.0115754 -0.00213012 -0.0151842 -0.703073 13.7827 -9.75343 
8062 504 3 1.008 0.03 4.37309 11.7685 6.53205 53.5554 60.9508 104.897 1 1 2 -0.00709697 -0.00989402 -0.0216823 -8.08363 2.74269 3.74636 
8399 525 3 1.008 0.03 0.776158 10.8762 1.80437 99.1409 109.241 -96.5603 2 2 -2 -0.0129104 -0.00812985 0.00481915 -12.182 -16.7843 10.7634 
3655 229 3 1.008 0.03 6.78334 16.0747 7.09839 6.78334 65.257 7.09839 0 1 0 0.0253231 0.0105175 0.0256394 -3.12525 -52.6565 -1.49557 
2821 177 2 12.01 0.11 0.732148 15.1092 7.35703 -48.4502 64.2915 56.5394 -1 1 1 -0.00437288 -0.0113902 0.00605908 42.9094 0.116912 -16.9377 
3660 229 3 1.008 0.03 4.2023 14.2447 7.08756 4.2023 63.427 7.08756 0 1 0 0.00691465 -0.00953565 -0.00273906 7.50719 -1.30344 -1.33235 
8390 525 2 12.01 0.11 1.37504 11.0455 0.941319 99.7397 109.41 -97.4234 2 2 -2 -0.00268224 -0.00459543 0.00359835 21.1932 38.4312 14.1558 
8057 504 3 1.008 0.03 1.83193 9.65885 7.25207 51.0143 58.8412 105.617 1 1 2 -0.0218341 -0.00433105 -0.0164897 -3.12778 16.0903 11.0855 
8394 525 3 1.008 0.03 0.979484 8.66734 0.656737 99.3442 107.032 -97.708 2 2 -2 -0.0069445 0.00739803 -0.0222568 -0.0957432 -8.2941 -9.22617 
2828 177 3 1.008 0.03 1.07758 15.3169 6.29496 -48.1048 64.4992 55.4773 -1 1 1 -0.00568787 -0.010026 0.00352199 -13.5007 -19.8106 25.921 
8400 525 3 1.008 0.03 2.07387 11.7933 1.33363 100.439 110.158 -97.0311 2 2 -2 -0.0124873 0.00683605 0.00201084 -4.80656 -0.266683 -3.43281 
3661 229 3 1.008 0.03 4.30578 15.8796 7.33478 4.30578 65.0619 7.33478 0 1 0 0.00218257 0.0108033 -0.0165352 -3.19918 6.94174 -14.8201 
2878 180 3 1.008 0.03 7.9141 9.39682 1.77649 7.9141 58.5792 -47.4059 0 1 -1 0.0152763 0.0243811 -0.000601913 -14.0481 -0.379829 3.75267 
8386 525 1 16 -0.4 2.26697 10.048 0.528379 100.632 108.413 -97.8363 2 2 -2 -0.0100394 0.00169791 0.0052094 33.1596 23.6535 12.0002 
7931 496 3 1.008 0.03 12.9404 11.085 5.9858 12.9404 11.085 55.1682 0 0 1 -0.00766267 0.00165459 0.0136605 22.5727 21.0903 26.9199 
7922 496 1 16 -0.4 16.598 8.82861 5.93179 16.598 8.82861 55.1141 0 0 1 -0.00313623 0.00706226 -0.000392835 0.833689 21.9999 12.1563 
2207 138 3 1.008 0.03 11.7465 12.5906 1.88566 60.9289 61.7729 -96.479 1 1 -2 0.00820661 0.00404073 0.000329717 8.30927 8.97135 -25.5014 
9827 616 6 16 -0.53 13.0699 16.6152 1.07202 62.2522 16.6152 1.07202 1 0 0 0.000647166 -0.00315835 0.00323959 -6.33197 -7.14446 25.5891 
7921 496 1 16 -0.4 14.8561 10.6358 6.32177 14.8561 10.6358 55.5041 0 0 1 -0.00269265 -0.00323547 0.00431182 2.76353 -19.9612 3.49971 
972 61 3 1.008 0.03 14.1577 9.918 1.87101 14.1577 9.918 51.0534 0 0 1 0.000857194 0.0449641 0.0107756 14.2607 5.79416 -17.073 
965 61 2 12.01 0.11 14.3744 9.52754 2.84274 14.3744 9.52754 52.0251 0 0 1 -0.00238572 0.00756112 0.00465498 -16.941 2.49248 20.0458 
971 61 3 1.008 0.03 13.5489 9.9884 3.40453 13.5489 9.9884 52.5869 0 0 1 0.0344548 -0.00845767 0.0031623 12.6718 -5.48469 4.91901 
961 61 1 16 -0.4 15.6646 9.77805 3.42774 15.6646 9.77805 52.6101 0 0 1 0.00150845 0.000362788 -0.00407104 -19.5505 29.2876 13.4446 
2256 141 3 1.008 0.03 15.8132 12.1514 2.54328 15.8132 12.1514 51.7256 0 0 1 -0.0141208 -0.0180816 0.00346177 33.2077 11.3361 10.9786 
9637 604 4 14.01 -0.66 9.60488 9.26257 4.33174 9.60488 58.4449 4.33174 0 1 0 -0.00138094 0.00187931 -0.00241307 -6.55445 -15.8768 -14.1755 
3654 229 2 12.01 0.11 9.07484 15.062 3.99877 9.07484 64.2443 3.99877 0 1 0 -0.000849608 -0.00169133 -0.00217122 -70.581 -25.1545 -12.5944 
3664 229 3 1.008 0.03 9.29585 14.0272 3.70745 9.29585 63.2096 3.70745 0 1 0 -0.0143023 -0.0139972 0.0192222 3.61258 8.37452 -3.05428 
9643 604 8 19 -0.16 11.938 11.1483 4.28999 11.938 60.3307 4.28999 0 1 0 -0.00343745 -0.00257478 0.00068241 -14.1324 -4.30382 -15.4914 
9641 604 7 12.01 0.35 10.7164 11.5298 4.64609 10.7164 60.7121 4.64609 0 1 0 -0.0047398 0.00248229 0.000297443 16.4903 20.5502 2.30699 
9644 604 8 19 -0.16 10.9158 12.6176 5.37077 10.9158 61.8 5.37077 0 1 0 5.20999e-05 -0.00105517 0.00480518 -7.82243 -2.32639 6.08607 
9638 604 5 32.06 1.02 9.76234 10.2509 5.46323 9.76234 59.4333 5.46323 0 1 0 -0.00390552 -0.000432725 -0.00497913 -88.4359 38.8148 46.7246 
9640 604 6 16 -0.53 10.5372 9.79226 6.53884 10.5372 58.9746 6.53884 0 1 0 -0.000311272 0.00451198 -0.00228902 36.9129 -3.45558 42.1581 
7186 450 1 16 -0.4 12.962 14.978 5.58068 12.962 64.1604 153.128 0 1 3 0.00126218 -0.00138061 0.00518691 2.52876 15.9548 3.76271 
7190 450 2 12.01 0.11 13.2216 15.769 4.45698 13.2216 64.9513 152.004 0 1 3 -0.000687983 0.00108646 0.00065637 15.5687 23.6542 18.1114 
7200 450 3 1.008 0.03 13.3598 15.1808 3.60637 13.3598 64.3631 151.153 0 1 3 -0.011205 0.00637374 -0.0207289 8.15924 -18.6897 -24.4282 
9642 604 8 19 -0.16 10.075 11.9301 3.57425 10.075 61.1124 3.57425 0 1 0 0.00104586 -0.00281738 0.00678339 3.58978 4.17962 -14.1799 
2246 141 2 12.01 0.11 16.128 12.957 3.26256 16.128 12.957 52.4449 0 0 1 -0.00631031 0.00306893 -0.00199189 -32.2975 -24.5862 -31.0249 
7188 450 2 12.01 0.14 12.9646 15.8691 6.69828 12.9646 65.0514 154.245 0 1 3 0.00300032 0.00469915 -0.0114545 -6.67839 7.8406 32.2076 
2198 138 2 12.01 0.11 12.1014 13.0473 0.912338 61.2837 62.2296 -97.4524 1 1 -2 -0.00138665 0.000702811 0.00281816 -38.0765 -5.70194 35.0975 
2254 141 3 1.008 0.03 15.1684 13.4177 3.11001 15.1684 13.4177 52.2924 0 0 1 0.0240581 0.0141855 -0.00951953 -5.95195 17.6538 10.1008 
2250 141 3 1.008 0.03 15.5697 14.4569 5.06292 15.5697 14.4569 54.2453 0 0 1 0.0299857 0.00435299 0.00700842 8.86283 -7.09088 4.65805 
963 61 2 12.01 0.14 16.6335 9.01023 2.8037 16.6335 9.01023 51.986 0 0 1 0.00572318 0.000466327 -0.00276424 18.2848 -17.0996 37.4882 
10461 672 9 24.305 2 16.6318 10.7425 5.18763 16.6318 10.7425 54.37 0 0 1 -0.00317153 -0.000686563 -0.00217818 -23.8071 -17.3067 -2.30491 
2242 141 1 16 -0.4 16.2554 12.5321 4.59659 16.2554 12.5321 53.7789 0 0 1 0.00224276 0.00857516 0.000722437 6.40096 -2.97451 6.63523 
3663 229 3 1.008 0.03 9.87468 15.4598 4.50456 9.87468 64.6422 4.50456 0 1 0 -0.0298902 -0.0145002 -0.0227139 30.6465 19.1683 26.9658 
3657 229 3 1.008 0.03 8.72744 14.9225 6.42146 8.72744 64.1049 6.42146 0 1 0 0.014807 0.00944052 -0.0147455 1.88212 -11.0729 6.73109 
7923 496 2 12.01 0.14 14.4878 9.47011 7.09665 14.4878 9.47011 56.279 0 0 1 0.00413171 0.00158213 0.00240499 5.02259 -25.1136 25.9926 
2208 138 3 1.008 0.03 12.7956 13.7962 1.17305 61.9779 62.9785 -97.1916 1 1 -2 0.0029936 -0.00141393 -0.0115995 14.6824 18.6705 3.78631 
10150 638 6 16 -0.53 16.0667 15.7266 1.94198 16.0667 15.7266 51.1243 0 0 1 0.00201733 0.00121342 -0.0020157 -14.2606 -0.602312 12.3927 
2244 141 2 12.01 0.14 16.3677 13.7436 5.35277 16.3677 13.7436 54.5351 0 0 1 -0.00684249 0.000408691 -0.000196643 -36.7006 -0.550243 -8.676 
2249 141 3 1.008 0.03 16.1483 13.5778 6.37987 16.1483 13.5778 55.5622 0 0 1 0.0149335 -0.0118364 0.00806698 0.981777 -8.69215 16.0485 
7933 496 3 1.008 0.03 14.1175 12.418 6.17363 14.1175 12.418 55.356 0 0 1 -0.0147971 -0.00796417 0.0146589 1.04454 41.382 -12.9104 
7925 496 2 12.01 0.11 13.808 11.523 6.57002 13.808 11.523 55.7524 0 0 1 0.011874 0.000219493 0.00453735 -38.0196 -43.9861 8.48218 
7198 450 3 1.008 0.03 12.41 16.4295 4.23124 12.41 65.6119 151.778 0 1 3 -0.0364987 -0.00366964 0.0192173 -12.1821 7.94405 -0.312662 
3662 229 3 1.008 0.03 8.83901 15.6985 3.15277 8.83901 64.8809 3.15277 0 1 0 -0.00355611 -0.00274022 -0.00381559 14.8795 -2.49185 -9.16528 
2879 180 3 1.008 0.03 9.38902 10.0308 1.37754 9.38902 59.2131 -47.8048 0 1 -1 0.0220606 0.00284381 0.000876398 3.98745 7.65481 -8.87893 
7199 450 3 1.008 0.03 14.111 16.408 4.65072 14.111 65.5904 152.198 0 1 3 0.00892831 0.0151963 0.00248125 -7.57652 -10.1275 -10.4998 
7194 450 3 1.008 0.03 13.9329 16.3 6.97816 13.9329 65.4824 154.525 0 1 3 -0.00565558 0.0423045 0.00785403 -0.160351 -8.62188 -9.12109 
7928 496 3 1.008 0.03 13.3968 9.08373 7.18294 13.3968 9.08373 56.3653 0 0 1 0.0107329 0.0139113 0.012776 40.0047 22.0843 -16.6451 