ITEM: TIMESTEP
3600000
ITEM: NUMBER OF ATOMS
10479
ITEM: BOX BOUNDS pp pp pp
4.0882558190751794e-01 4.9591174418091420e+01
4.0882558190751794e-01 4.9591174418091420e+01
4.0882558190751794e-01 4.9591174418091420e+01
ITEM: ATOMS id mol type mass q x y z xu yu zu ix iy iz vx vy vz fx fy fz 
8818 552 1 16 -0.4 5.13603 3.73748 3.82366 5.13603 102.102 102.188 0 2 2 0.00523211 0.00498722 0.00255238 27.6309 18.0685 -8.92585 
8830 552 3 1.008 0.03 5.92574 4.93101 2.45635 5.92574 103.296 100.821 0 2 2 -0.0158876 -0.00567546 -0.0057237 5.67914 17.1835 -11.1649 
8820 552 2 12.01 0.14 4.68239 2.44445 3.93626 4.68239 100.809 102.301 0 2 2 0.00398965 -0.000499866 -0.00278028 27.0343 -13.1438 36.6046 
8825 552 3 1.008 0.03 5.48494 1.91629 3.45919 5.48494 100.281 101.824 0 2 2 0.0217132 -0.0271539 0.00277288 -2.01365 -34.5908 3.67322 
8826 552 3 1.008 0.03 3.78599 2.37563 3.44555 3.78599 100.74 101.81 0 2 2 -0.0103957 0.00218207 -0.00283832 -34.2326 -9.98799 -32.0098 
8822 552 2 12.01 0.11 5.79305 3.88265 2.54001 5.79305 102.247 100.905 0 2 2 0.00252948 0.00622898 0.0026617 -37.033 -4.87967 15.7421 
8831 552 3 1.008 0.03 6.74575 3.3576 2.36495 6.74575 101.722 100.73 0 2 2 -0.0015636 -0.0184417 0.0142886 -8.01033 0.535072 9.00712 
8832 552 3 1.008 0.03 5.01062 3.5179 1.84555 5.01062 101.883 100.21 0 2 2 -0.0159582 -0.0197591 0.00698791 17.1805 10.9233 -7.8107 
7617 477 1 16 -0.4 1.82186 7.95891 6.00839 1.82186 7.95891 55.1907 0 0 1 -0.0022376 0.00376188 0.00398584 5.57244 -9.13807 0.937115 
7191 450 3 1.008 0.03 0.558308 1.57333 1.99734 0.558308 50.7557 149.544 0 1 3 0.0209343 -0.0232491 -0.0244387 2.94832 -0.98728 13.8174 
10119 636 6 16 -0.53 2.50186 4.02908 0.843117 2.50186 4.02908 50.0255 0 0 1 0.000225268 -0.000351536 0.00519636 2.22841 1.05787 20.4155 
8824 552 3 1.008 0.03 4.44552 0.913544 5.58706 4.44552 99.2782 103.952 0 2 2 -0.0123796 -0.00495504 -0.0136808 2.91906 2.90505 -10.7083 
8821 552 2 12.01 0.11 3.185 3.48707 6.70928 3.185 101.852 105.074 0 2 2 -0.0045172 -0.00534353 -0.00148585 -34.0222 12.9991 14.2666 
8817 552 1 16 -0.4 3.09274 2.46077 5.72817 3.09274 100.825 104.093 0 2 2 -0.0012064 -0.00903465 -0.00765504 39.0298 -8.23173 4.81152 
8827 552 3 1.008 0.03 3.72443 4.38046 6.35721 3.72443 102.745 104.722 0 2 2 0.0012557 -0.0131073 -0.0142279 0.316551 -8.49137 1.70989 
8819 552 2 12.01 0.14 4.44291 1.99314 5.39161 4.44291 100.358 103.756 0 2 2 -0.00200891 -0.00511235 0.00421797 -71.252 -2.4521 -19.8447 
8823 552 3 1.008 0.03 5.11284 2.40374 6.03257 5.11284 100.768 104.397 0 2 2 0.0105643 -0.0132609 -0.0197272 42.395 16.9583 28.0339 
7621 477 2 12.01 0.11 3.14398 8.14752 5.48515 3.14398 8.14752 54.6675 0 0 1 0.00255945 -0.00697853 0.00322329 -10.8021 -4.07227 0.394364 
7627 477 3 1.008 0.03 3.59606 7.16996 5.40045 3.59606 7.16996 54.5828 0 0 1 0.0145461 0.010811 -0.0110492 13.1811 -2.61809 8.97041 
7187 450 2 12.01 0.14 0.963317 0.656672 2.45188 0.963317 49.839 149.999 0 1 3 -0.0078584 -0.00578472 0.000453973 21.0045 1.40314 -18.2189 
4432 277 3 1.008 0.03 7.06597 6.91947 2.17158 105.431 6.91947 100.536 2 0 2 0.0044644 0.009344 -0.0124357 -1.90324 8.8306 13.3807 
7192 450 3 1.008 0.03 1.68247 0.864376 3.28133 1.68247 50.0467 150.828 0 1 3 -0.00658648 0.0221511 -0.00711502 -20.644 4.6116 -6.77431 
2432 152 3 1.008 0.03 8.08481 4.96341 3.97368 -139.462 54.1458 102.338 -3 1 2 0.00590756 0.00508573 0.0194422 30.7641 -4.16859 24.3926 
8828 552 3 1.008 0.03 2.14517 3.81354 6.94044 2.14517 102.178 105.305 0 2 2 -0.0163922 -0.00541506 -0.002652 14.9031 -3.77319 -7.3819 
10117 636 4 14.01 -0.66 1.22505 6.22731 0.476425 1.22505 6.22731 49.6588 0 0 1 0.00305051 -0.00111973 -0.00530197 -29.3888 -6.74662 15.1294 
7193 450 3 1.008 0.03 2.59221 0.656376 0.931652 2.59221 49.8387 148.479 0 1 3 -0.00939774 -0.00710865 0.0106698 3.95137 17.2559 -8.25702 
7623 477 3 1.008 0.03 0.717993 6.70559 7.24216 0.717993 6.70559 56.4245 0 0 1 0.00608873 -0.0027032 0.00669567 24.6841 12.5287 -2.23829 
7628 477 3 1.008 0.03 3.18656 8.45053 4.45147 3.18656 8.45053 53.6338 0 0 1 -0.00362071 -0.00399752 0.040062 -10.5443 9.09842 -5.57929 
4430 277 3 1.008 0.03 5.91955 7.73956 3.34587 104.284 7.73956 101.711 2 0 2 -0.0238189 -0.0147197 -0.0225156 -2.72517 -9.57143 18.091 
4431 277 3 1.008 0.03 5.53821 7.55239 1.6751 103.903 7.55239 100.04 2 0 2 -0.0149923 -0.0207585 0.000409906 1.42846 5.36317 1.1217 
4422 277 2 12.01 0.11 6.35715 7.74342 2.37588 104.722 7.74342 100.741 2 0 2 -0.00339367 0.00580596 0.00345947 -1.18723 -6.43116 -29.3477 
4426 277 3 1.008 0.03 8.54956 8.3351 1.02968 106.914 8.3351 99.3944 2 0 2 0.0184769 0.0194879 -0.00121793 -10.8172 19.8851 2.64177 
975 61 3 1.008 0.03 0.64211 5.22027 4.81319 0.64211 5.22027 53.9955 0 0 1 0.0172385 0.0139335 0.0115208 3.91553 -15.2835 26.9737 
974 61 3 1.008 0.03 0.645347 6.82903 4.13098 0.645347 6.82903 53.3133 0 0 1 -0.0116645 -0.0127969 0.00462939 -0.237761 -29.264 -10.6867 
976 61 3 1.008 0.03 0.490002 5.20205 3.15704 0.490002 5.20205 52.3394 0 0 1 0.0107759 0.00222634 -0.0145412 4.47489 17.6521 2.15746 
7624 477 3 1.008 0.03 2.4015 6.0941 7.04247 2.4015 6.0941 56.2248 0 0 1 0.0132298 0.0211213 0.0185193 -25.3724 42.2376 -3.92265 
7619 477 2 12.01 0.14 1.78168 7.06482 7.1462 1.78168 7.06482 56.3285 0 0 1 -0.00888085 0.00425067 -0.00778906 -6.26937 -53.4963 -7.03793 
2431 152 3 1.008 0.03 9.17488 5.58395 5.32951 -138.372 54.7663 103.694 -3 1 2 0.0113904 0.0086703 0.017356 -1.26532 21.8641 7.04348 
5176 324 3 1.008 0.03 9.26617 0.733593 7.38306 9.26617 0.733593 56.5654 0 0 1 -0.00622735 -0.0233571 0.00620464 -11.1798 -2.22307 -12.5321 
2417 152 1 16 -0.4 8.692 4.66272 1.42965 -138.855 53.8451 99.7943 -3 1 2 0.000725477 -0.000631364 -0.00315798 17.2055 -9.39599 -7.01331 
2426 152 3 1.008 0.03 9.82624 6.08334 3.07461 -137.721 55.2657 101.439 -3 1 2 0.0201763 0.0071725 -0.0235416 1.69321 25.6893 -2.49466 
838 53 2 12.01 0.11 9.50993 1.19533 3.79979 58.6923 99.56 -45.3826 1 2 -1 -0.00698385 0.000664948 0.000969285 -11.2542 -13.1436 23.7488 
848 53 3 1.008 0.03 9.61861 1.61303 4.8156 58.801 99.9777 -44.3668 1 2 -1 0.0123284 -0.0121037 -0.00855456 0.397446 0.715409 -10.3619 
846 53 3 1.008 0.03 8.91096 1.83437 3.19202 58.0933 100.199 -45.9903 1 2 -1 0.0187988 0.000542247 -0.00970108 -1.32733 18.2301 -8.40022 
2422 152 2 12.01 0.11 8.96068 4.76558 4.6904 -138.586 53.9479 103.055 -3 1 2 0.0039317 0.000878817 0.0065817 -50.96 -43.3566 10.0415 
2418 152 1 16 -0.4 10.1478 4.35463 4.08334 -137.399 53.537 102.448 -3 1 2 -0.00227535 -0.000417076 -0.00233079 10.4082 -2.88348 -15.5059 
2419 152 2 12.01 0.14 10.1365 4.60657 1.57402 -137.411 53.7889 99.9387 -3 1 2 0.000317917 -0.00322621 -0.00577929 -22.233 -20.2864 45.6887 
2420 152 2 12.01 0.14 10.4405 5.21732 2.99502 -137.107 54.3997 101.36 -3 1 2 -0.000584891 -0.00617932 -0.000167561 17.6131 -7.693 -41.0298 
2430 152 3 1.008 0.03 8.63302 3.94788 5.40258 -138.914 53.1302 103.767 -3 1 2 0.0246086 0.0086357 0.010533 7.11204 19.6772 -20.3685 
4189 262 3 1.008 0.03 14.1992 4.86924 2.0392 14.1992 54.0516 51.2215 0 1 1 -0.00531714 -0.0123238 0.0144663 -9.95146 -18.2108 10.6844 
4188 262 3 1.008 0.03 14.5992 3.43641 3.09609 14.5992 52.6188 52.2784 0 1 1 -0.00863434 -0.00721639 -0.0196675 3.31172 4.08713 -12.2032 
4181 262 2 12.01 0.11 14.4704 3.78861 2.05372 14.4704 52.971 51.2361 0 1 1 0.0122423 -0.00447468 0.00503169 7.19182 30.3912 5.09122 
6874 430 3 1.008 0.03 16.1125 2.41428 4.76472 65.2948 2.41428 4.76472 1 0 0 -0.0177919 -0.00155295 -0.00758305 1.35487 -1.13531 6.31633 
4187 262 3 1.008 0.03 13.7449 3.18644 1.54358 13.7449 52.3688 50.7259 0 1 1 -0.0237573 0.0029573 0.0012929 -14.4142 -6.2468 0.00500463 
833 53 1 16 -0.4 11.6145 0.709042 6.20527 60.7968 99.0737 -42.9771 1 2 -1 0.00084048 0.00348851 0.00769257 18.883 -18.9207 -33.6973 
839 53 3 1.008 0.03 12.6153 1.54983 4.53972 61.7977 99.9145 -44.6426 1 2 -1 0.00629184 -2.43946e-05 -0.0142004 2.86374 32.2937 -4.42997 
834 53 1 16 -0.4 10.7544 0.908118 3.19389 59.9368 99.2728 -45.9885 1 2 -1 -0.003108 0.000516495 -0.00582703 -1.41095 -8.53704 -5.65489 
4177 262 1 16 -0.4 15.6289 3.83178 1.26166 15.6289 53.0141 50.444 0 1 1 0.00129154 0.00652153 -0.0110071 1.71241 0.684087 -42.1246 
6322 396 1 16 -0.4 14.8201 7.96128 1.85565 -132.727 155.508 -47.3267 -3 3 -1 0.0054747 0.000115553 0.0054399 7.95218 -17.0955 -36.1615 
2425 152 3 1.008 0.03 11.5063 5.52626 2.93305 -136.041 54.7086 101.298 -3 1 2 0.00269186 0.000416785 0.00814305 -12.6789 -4.22142 12.807 
2424 152 3 1.008 0.03 10.6253 5.17587 0.816452 -136.922 54.3582 99.1812 -3 1 2 -0.0125524 -0.00799437 0.00927547 6.14789 8.31387 -13.4933 
2423 152 3 1.008 0.03 10.5581 3.58277 1.59627 -136.989 52.7651 99.961 -3 1 2 0.0140495 0.00318739 -0.0160134 -9.86579 10.5838 -7.12806 
6321 396 1 16 -0.4 14.1017 7.22188 4.43972 -133.445 154.769 -44.7426 -3 3 -1 0.000947796 -0.00189058 -0.00247981 18.7964 -4.0575 -22.7925 
6332 396 3 1.008 0.03 13.2871 5.84442 5.64035 -134.26 153.391 -43.542 -3 3 -1 -0.0032872 -0.0131008 0.0166473 0.281241 5.86083 -1.65697 
6331 396 3 1.008 0.03 12.1808 7.06226 5.02048 -135.366 154.609 -44.1619 -3 3 -1 -0.00953381 -0.00398201 -0.0350723 7.39752 2.41007 7.89818 
6325 396 2 12.01 0.11 13.2039 6.91573 5.40936 -134.343 154.463 -43.773 -3 3 -1 0.00462224 -0.00364203 0.000334804 -37.4241 -27.0046 9.5081 
6326 396 2 12.01 0.11 15.9921 7.47912 1.16435 -131.555 155.026 -48.018 -3 3 -1 -0.00230245 -0.00609416 -0.00767187 1.44381 69.6473 -30.7735 
844 53 3 1.008 0.03 12.1035 2.57378 6.89657 61.2859 100.938 -42.2858 1 2 -1 -0.0143061 0.0152767 4.35675e-05 10.9921 -43.0946 9.44468 
9312 582 3 1.008 0.03 11.4055 1.84052 0.539722 -37.7768 51.0229 148.087 -1 1 3 -0.0151795 -0.00650432 -7.73149e-05 19.1385 4.15392 -2.79386 
6335 396 3 1.008 0.03 16.3724 6.64515 1.67823 -131.175 154.192 -47.5041 -3 3 -1 -0.00161695 0.0126174 0.0233639 12.7171 -27.277 2.47984 
7276 455 3 1.008 0.03 16.0659 1.34332 1.35767 65.2483 1.34332 50.54 1 0 1 -0.00329355 -0.0244563 -0.00219677 8.86959 2.90829 -9.65919 
6330 396 3 1.008 0.03 15.9902 8.16176 3.3986 -131.557 155.709 -45.7837 -3 3 -1 -0.0130352 -0.02192 -0.00205226 52.9409 -16.0996 27.6569 
6323 396 2 12.01 0.14 14.0635 8.55686 3.99719 -133.484 156.104 -45.1852 -3 3 -1 0.000795189 0.0056845 0.00668081 -0.189255 6.3143 13.2776 
7565 473 3 1.008 0.03 10.1187 8.05798 5.81532 10.1187 155.605 104.18 0 3 2 -0.00155781 -0.00516247 0.00208452 -2.3107 1.43935 7.35114 
6334 396 3 1.008 0.03 16.779 8.29665 1.17695 -130.768 155.844 -48.0054 -3 3 -1 -0.00820815 0.00428163 0.0241128 -18.5218 -24.6548 7.70754 
6333 396 3 1.008 0.03 13.3719 7.43196 6.33315 -134.175 154.979 -42.8492 -3 3 -1 2.51636e-05 -0.00181184 0.0120035 -0.00123556 11.0936 8.70827 
835 53 2 12.01 0.14 12.3587 0.616215 4.93442 61.541 98.9809 -44.2479 1 2 -1 0.00601439 0.00151018 0.000295637 29.8734 -34.0072 41.896 
6867 430 2 12.01 0.14 16.6893 2.10938 6.86303 65.8716 2.10938 6.86303 1 0 0 -0.00764222 -0.00262195 -0.00479123 -44.6277 20.6785 26.9049 
837 53 2 12.01 0.11 12.2256 1.46794 7.21311 61.4079 99.8326 -41.9692 1 2 -1 0.00142473 -0.00215844 -0.000825041 -26.3423 74.9277 -3.08347 
6871 430 3 1.008 0.03 15.5939 1.88733 6.95151 64.7763 1.88733 6.95151 1 0 0 -0.0109752 -0.00706003 0.0277747 21.1625 2.20985 -3.63681 
843 53 3 1.008 0.03 13.2686 1.30844 7.43255 62.451 99.6731 -41.7498 1 2 -1 -0.00195564 -0.000643523 0.00186064 6.85258 -9.46189 -0.741491 
6868 430 2 12.01 0.14 16.9898 2.13844 5.36493 66.1721 2.13844 5.36493 1 0 0 0.00525724 -0.0119253 0.00182251 -5.23092 17.8189 -3.44496 
6873 430 3 1.008 0.03 17.3911 1.24889 4.96522 66.5734 1.24889 4.96522 1 0 0 0.0166391 0.0309737 -0.0170211 1.55578 -27.8958 -2.29327 
6875 430 3 1.008 0.03 19.1853 1.15155 7.02578 68.3677 1.15155 7.02578 1 0 0 -0.0130411 0.0233085 0.00699684 23.7744 -4.3041 -10.8314 
6880 430 3 1.008 0.03 18.6256 2.48172 3.39856 67.8079 2.48172 3.39856 1 0 0 -0.0119576 -0.00286715 0.0135125 11.2559 -6.22756 -13.2119 
5803 363 3 1.008 0.03 19.5837 4.48423 0.572154 117.948 102.849 148.119 2 2 3 0.00170525 0.00476591 -0.0143413 16.5815 -11.3591 -0.370656 
10317 649 8 19 -0.16 24.5709 6.90057 1.41908 24.5709 6.90057 1.41908 0 0 0 0.00461072 -0.00342444 -0.00418789 -21.1737 12.0794 -15.3689 
1262 79 3 1.008 0.03 22.1431 1.92299 3.37266 120.508 -47.2594 101.737 2 -1 2 0.0199215 -0.0234898 -0.014712 13.8329 -9.77086 13.7576 
10316 649 7 12.01 0.35 23.428 7.50143 0.99906 23.428 7.50143 0.99906 0 0 0 0.0029805 -0.00173155 -0.00841339 -38.5487 -68.7637 21.9036 
6878 430 3 1.008 0.03 17.394 3.65285 3.25591 66.5764 3.65285 3.25591 1 0 0 0.00451645 -0.00784911 0.00527949 -9.61685 5.23603 -2.1105 
6870 430 2 12.01 0.11 18.2729 3.39757 3.82071 67.4552 3.39757 3.82071 1 0 0 0.00898299 -0.00140689 -0.00316538 -1.13332 3.62235 12.9671 
6866 430 1 16 -0.4 17.9848 3.0861 5.18517 67.1671 3.0861 5.18517 1 0 0 0.00627764 2.17346e-05 0.00259953 16.6302 29.9222 -2.60249 
1264 79 3 1.008 0.03 20.6149 1.69098 3.88177 118.98 -47.4914 102.246 2 -1 2 -0.0246409 0.00709611 -0.0145432 12.2267 -27.1242 -0.531757 
6879 430 3 1.008 0.03 18.9937 4.23068 3.70208 68.176 4.23068 3.70208 1 0 0 -0.0178861 -0.0117336 -0.00580533 -4.35866 -14.2231 2.73141 
5656 354 3 1.008 0.03 23.1729 3.31074 5.41003 -26.0095 52.4931 5.41003 -1 1 0 0.013268 0.00417878 -0.000476979 -6.12036 -1.38942 -9.10563 
5651 354 2 12.01 0.14 22.4381 4.12431 5.39414 -26.7443 53.3067 5.39414 -1 1 0 0.00598365 -0.00172862 -0.000776712 -8.46542 7.11399 27.8594 
5652 354 2 12.01 0.14 21.4228 3.91915 6.54609 -27.7596 53.1015 6.54609 -1 1 0 0.00285921 0.0007971 -0.00237433 -17.1491 -25.553 -21.8256 
5650 354 1 16 -0.4 21.0906 5.15196 7.16571 -28.0917 54.3343 7.16571 -1 1 0 -0.00442205 -0.00135374 0.00583419 -0.937602 28.9011 2.73089 
10458 669 9 24.305 2 22.6129 6.59698 7.12691 -26.5694 55.7793 7.12691 -1 1 0 -0.00324649 0.00393368 0.00229715 -2.5243 -39.532 27.0585 
5649 354 1 16 -0.4 23.109 5.32234 5.74544 -26.0734 54.5047 5.74544 -1 1 0 -0.000674513 -0.00128872 0.00601062 17.3572 -4.1762 -6.20501 
5657 354 3 1.008 0.03 20.5076 3.32645 6.21296 -28.6747 52.5088 6.21296 -1 1 0 -0.00316569 -0.00176823 -0.00262824 27.8909 16.2124 7.85212 
5658 354 3 1.008 0.03 21.974 3.33562 7.25812 -27.2084 52.518 7.25812 -1 1 0 0.000740792 -0.00850303 0.0221136 -2.66842 -9.23689 13.2917 
10322 649 6 16 -0.53 21.5777 7.44716 5.74533 21.5777 7.44716 5.74533 0 0 0 -0.00305292 -0.0040271 0.00342574 -11.9022 37.6416 -44.2233 
5655 354 3 1.008 0.03 21.9417 4.24535 4.43573 -27.2407 53.4277 4.43573 -1 1 0 -0.00366055 -0.000146531 -0.00218773 -1.29505 -4.45136 -4.51104 
10324 649 8 19 -0.16 19.5603 6.29956 4.35431 19.5603 6.29956 4.35431 0 0 0 0.00324529 0.00833365 0.00111877 -9.42562 9.95552 5.24787 
5653 354 2 12.01 0.11 24.0884 5.57619 4.73759 -25.094 54.7585 4.73759 -1 1 0 0.00753469 0.00251715 0.00228474 14.4313 39.7581 -1.5788 
10291 647 6 16 -0.53 24.11 7.90588 7.01116 24.11 57.0882 7.01116 0 1 0 -0.00194638 0.00104792 0.00240352 0.646335 6.86289 -3.10758 
10312 649 4 14.01 -0.66 22.4304 7.87888 3.42923 22.4304 7.87888 3.42923 0 0 0 -0.00512096 -0.000713589 -0.00396763 10.1807 8.68357 -23.2039 
10323 649 7 12.01 0.35 19.7957 7.52025 3.88273 19.7957 7.52025 3.88273 0 0 0 0.000599661 -0.00311808 0.00850516 0.436117 38.2707 -27.5573 
10325 649 8 19 -0.16 18.7313 8.3549 4.01513 18.7313 8.3549 4.01513 0 0 0 -0.00612744 -0.00294404 -0.001253 19.4666 -28.873 17.7739 
5659 354 3 1.008 0.03 23.6587 5.7753 3.76114 -25.5236 54.9576 3.76114 -1 1 0 -0.0158408 -0.0136125 -0.00153102 -3.91336 -9.63856 -3.50866 
1250 79 1 16 -0.4 21.8694 1.01818 5.30827 120.234 -48.1642 103.673 2 -1 2 0.00386496 -0.00100202 0.00312309 13.3791 -12.5539 33.0654 
8518 533 2 12.01 0.11 24.6772 3.04584 1.04444 73.8596 52.2282 1.04444 1 1 0 0.00316993 0.00282728 -0.000645452 15.0817 7.01778 20.3123 
8527 533 3 1.008 0.03 24.4126 3.34552 2.10619 73.5949 52.5279 2.10619 1 1 0 0.00168534 -0.0144259 -0.0159241 1.07293 -13.9376 -28.0179 
10326 649 8 19 -0.16 19.8846 7.39647 2.57922 19.8846 7.39647 2.57922 0 0 0 0.00675226 -0.00265346 0.00420302 2.44665 -9.91333 -8.65128 
1254 79 2 12.01 0.11 21.5985 1.15746 3.94591 119.963 -48.0249 102.311 2 -1 2 0.00547867 0.000752408 0.00202044 -20.4485 71.0753 -3.88917 
7167 448 3 1.008 0.03 17.933 8.12394 6.56688 17.933 -90.2408 55.7492 0 -2 1 -0.00421684 0.0131517 -0.0051987 1.91659 -5.22859 -5.25913 
7158 448 2 12.01 0.11 17.3836 8.59014 7.37269 17.3836 -89.7746 56.555 0 -2 1 -0.00687609 -0.00584513 -0.00171264 -2.67187 1.38185 19.7747 
8528 533 3 1.008 0.03 24.5234 1.96416 0.843868 73.7057 51.1465 0.843868 1 1 0 0.0203794 0.0283285 -0.0267193 -4.38663 13.3018 6.56522 
5804 363 3 1.008 0.03 20.8302 4.2211 1.78602 119.195 102.586 149.333 2 2 3 0.0144659 0.0530475 -0.016281 -8.18624 -15.6479 -8.51611 
5793 363 1 16 -0.4 20.088 2.484 0.769782 118.453 100.849 148.317 2 2 3 0.000825509 0.000977089 0.00975771 14.4896 15.6265 5.55768 
1257 79 3 1.008 0.03 23.8349 0.431452 5.27856 122.2 -48.7509 103.643 2 -1 2 0.00488829 -0.0104759 0.0290697 4.49175 3.3262 -4.87772 
5797 363 2 12.01 0.11 20.4715 3.84184 0.803359 118.836 102.207 148.35 2 2 3 -0.000861128 -0.00407026 -0.0042194 18.3048 47.1266 -3.01144 
5808 363 3 1.008 0.03 22.1029 0.523605 0.559863 120.468 98.8883 148.107 2 2 3 -0.0056309 0.0238275 0.0112291 8.9301 14.4381 13.5859 
10319 649 8 19 -0.16 22.4615 6.54065 0.964213 22.4615 6.54065 0.964213 0 0 0 0.00269055 -0.00577335 0.00180173 30.4751 17.2631 -5.79334 
10320 649 5 32.06 1.02 21.3878 8.2399 4.51041 21.3878 8.2399 4.51041 0 0 0 8.69322e-05 -0.00116183 -0.00286584 -32.4774 17.0809 59.4835 
5661 354 3 1.008 0.03 24.9264 4.90087 4.62399 -24.256 54.0832 4.62399 -1 1 0 -0.0128503 -0.00829495 0.00772086 -1.57468 -13.0032 4.93 
5660 354 3 1.008 0.03 24.5662 6.55166 4.95917 -24.6161 55.734 4.95917 -1 1 0 0.00236926 0.0141256 -0.0045911 -4.10161 -14.7089 -1.86917 
7629 477 3 1.008 0.03 3.71579 8.8947 6.0446 3.71579 8.8947 55.227 0 0 1 -0.00176513 -0.00824775 -0.00165272 2.4465 -8.07395 2.76309 
9289 581 3 1.008 0.03 4.9185 16.3605 1.7405 152.466 -32.8219 -47.4419 3 -1 -1 -0.0169682 0.0109593 0.00754339 -3.39873 -16.2801 3.61256 
4419 277 2 12.01 0.14 8.22583 10.543 0.98698 106.591 10.543 99.3517 2 0 2 -0.00181253 -0.00992545 -0.000610621 -58.5641 -12.7644 -16.3891 
6258 392 1 16 -0.4 1.42775 15.2857 2.47825 1.42775 15.2857 100.843 0 0 2 -0.000462387 -0.00348669 0.00070862 2.55534 -20.2845 -10.1256 
6262 392 2 12.01 0.11 1.97816 16.0447 3.50773 1.97816 16.0447 101.872 0 0 2 -0.00132809 0.00252399 0.00065428 8.43431 -17.9856 16.4275 
4417 277 1 16 -0.4 7.10839 11.2774 0.494589 105.473 11.2774 98.8593 2 0 2 0.00279049 0.00615144 -0.00571129 2.78909 -7.0184 -2.72094 
4418 277 1 16 -0.4 6.90337 9.0287 2.18453 105.268 9.0287 100.549 2 0 2 -1.71303e-05 -0.0035439 0.00130376 19.9526 -4.29083 -16.2487 
4420 277 2 12.01 0.14 7.73581 9.10835 0.997341 106.101 9.10835 99.362 2 0 2 -0.00250198 -5.98539e-05 -0.00713086 -6.66261 -25.0688 43.3556 
5850 366 3 1.008 0.03 5.3714 13.5269 6.09049 5.3714 13.5269 -43.0919 0 0 -1 0.0210643 -0.00961793 0.0315186 -10.0927 -20.3306 -16.3515 
5843 366 2 12.01 0.14 4.2802 12.5008 4.42924 4.2802 12.5008 -44.7531 0 0 -1 -0.000919211 0.00189699 0.000443858 -14.5029 -24.1484 -3.31498 
5848 366 3 1.008 0.03 3.67154 13.3318 4.07129 3.67154 13.3318 -45.1111 0 0 -1 -0.00907342 -0.00450165 0.0156668 1.92845 1.89504 -0.032751 
5847 366 3 1.008 0.03 5.19506 12.4832 3.87358 5.19506 12.4832 -45.3088 0 0 -1 0.0154983 -0.00675891 0.00375564 10.3019 0.454294 -10.0271 
5849 366 3 1.008 0.03 5.11001 11.8483 6.33927 5.11001 11.8483 -42.8431 0 0 -1 -0.0223816 0.00697457 0.000204884 6.93733 -27.2119 11.6939 
5844 366 2 12.01 0.14 4.65019 12.6835 5.90564 4.65019 12.6835 -43.2767 0 0 -1 -0.00618685 0.000577412 0.00346566 -5.61433 51.0985 5.34435 
5842 366 1 16 -0.4 3.5444 13.2042 6.6299 3.5444 13.2042 -42.5524 0 0 -1 -0.00167256 0.00610925 0.00607706 -16.3292 -17.6682 2.19795 
5846 366 2 12.01 0.11 2.42435 12.2955 6.78247 2.42435 12.2955 -42.3999 0 0 -1 -0.0059545 0.00116448 0.00200823 7.44469 18.9592 -20.7173 
5855 366 3 1.008 0.03 1.94132 12.0038 5.81847 1.94132 12.0038 -43.3639 0 0 -1 0.0215021 0.00228173 0.00303202 6.56248 9.10634 16.6672 
5841 366 1 16 -0.4 3.57672 11.2389 4.212 3.57672 11.2389 -44.9704 0 0 -1 0.00275084 0.00727584 0.00135738 16.6749 17.4584 41.6918 
4424 277 3 1.008 0.03 8.4341 10.8913 1.96004 106.799 10.8913 100.325 2 0 2 0.0167787 -0.000401086 0.000967023 21.206 7.45786 19.9748 
5852 366 3 1.008 0.03 2.67628 10.1211 2.73125 2.67628 10.1211 -46.4511 0 0 -1 0.00408379 -0.0204636 0.0182419 -20.3932 -3.09812 6.87816 
5851 366 3 1.008 0.03 4.21603 10.4874 2.42226 4.21603 10.4874 -46.7601 0 0 -1 -0.00541587 -0.00890436 0.00235975 10.1353 15.3651 -2.16581 
7567 473 3 1.008 0.03 7.68511 14.3367 5.33309 7.68511 161.884 103.698 0 3 2 -0.0141273 -0.0194977 -0.0369094 9.98709 -0.385862 24.4003 
5845 366 2 12.01 0.11 3.34781 10.9363 2.89816 3.34781 10.9363 -46.2842 0 0 -1 -1.79524e-05 0.00403827 -0.00126647 -1.94119 21.2634 -38.811 
5853 366 3 1.008 0.03 2.9728 11.8906 2.42425 2.9728 11.8906 -46.7581 0 0 -1 0.0092604 0.0221465 0.0108099 8.19401 -28.6637 -2.55245 
459 29 3 1.008 0.03 3.34609 15.7599 5.96475 -45.8363 15.7599 104.329 -1 0 2 -0.0192591 0.0104953 -0.00170942 -4.69405 4.74326 1.19652 
7566 473 3 1.008 0.03 7.66422 13.105 4.096 7.66422 160.652 102.461 0 3 2 -0.00207479 -0.0213418 0.00299054 17.6883 16.1883 10.9235 
7558 473 2 12.01 0.11 8.29337 13.924 4.55145 8.29337 161.471 102.916 0 3 2 0.00136107 -0.0140479 0.000904741 -36.9905 -2.69059 -57.6215 
461 29 3 1.008 0.03 4.97742 16.1942 5.69558 -44.2049 16.1942 104.06 -1 0 2 -0.0133778 -0.00517252 -0.0257121 31.7341 -15.2859 -9.58125 
7560 473 3 1.008 0.03 8.18536 11.1596 5.46311 8.18536 158.707 103.828 0 3 2 0.00976986 0.016767 0.000604943 -24.1254 -1.48342 14.7473 
7568 473 3 1.008 0.03 8.25514 14.7434 3.80041 8.25514 162.29 102.165 0 3 2 0.0031871 -0.00571047 0.0107247 2.01678 -15.6115 8.92197 
7563 473 3 1.008 0.03 8.40881 8.73042 5.82308 8.40881 156.277 104.188 0 3 2 0.00207591 -0.000736737 -0.0243478 27.1235 1.60953 0.561546 
6272 392 3 1.008 0.03 2.99737 15.7772 3.7703 2.99737 15.7772 102.135 0 0 2 -0.00414299 -0.00985462 -0.0197678 1.14449 -7.27908 -11.6374 
9287 581 3 1.008 0.03 7.29538 16.4506 1.48227 154.842 -32.7317 -47.7001 3 -1 -1 -0.0198412 -0.012047 0.0222402 19.5803 0.96342 -1.44908 
453 29 2 12.01 0.11 4.06233 16.5813 5.99302 -45.12 16.5813 104.358 -1 0 2 0.00338735 -0.0075796 0.00472993 -9.3349 17.6135 27.2666 
5856 366 3 1.008 0.03 2.71778 11.3901 7.26958 2.71778 11.3901 -41.9128 0 0 -1 -0.0188248 0.00511135 -0.00305323 4.78843 -11.2415 8.91516 
4429 277 3 1.008 0.03 7.76659 13.1698 1.15855 106.131 13.1698 99.5232 2 0 2 0.0208671 -0.0286095 -0.00674875 -15.5232 -19.1002 -29.8116 
6271 392 3 1.008 0.03 1.41872 15.8918 4.40023 1.41872 15.8918 102.765 0 0 2 0.0046485 -0.00407728 -0.00740462 -9.70015 -2.3965 15.4222 
5854 366 3 1.008 0.03 1.69856 12.8159 7.40663 1.69856 12.8159 -41.7757 0 0 -1 -0.00576877 0.0125377 0.00636174 -3.85897 -4.05676 -0.264824 
9037 565 3 1.008 0.03 15.0104 15.0463 0.843433 15.0104 -132.501 99.2081 0 -3 2 0.00878065 -0.00230575 0.00493095 -1.59465 -7.27973 5.46916 
8332 521 3 1.008 0.03 12.7964 16.1315 7.28811 111.161 65.3138 56.4705 2 1 1 -0.0189005 0.0205693 0.00379232 -10.6273 3.63403 -5.73035 
7159 448 3 1.008 0.03 16.7716 12.1965 7.32511 16.7716 -86.1682 56.5075 0 -2 1 -0.0130416 -0.0111752 0.0212121 19.1 -9.66364 1.61616 
7166 448 3 1.008 0.03 16.3594 8.7864 7.01148 16.3594 -89.5783 56.1938 0 -2 1 0.00273049 -0.000926965 -0.00591358 8.06384 -0.111853 2.87209 
3158 198 2 12.01 0.11 11.5049 14.4039 0.797094 109.87 14.4039 49.9794 2 0 1 -0.00559761 0.00190673 -0.000959979 4.39907 -27.9628 -17.0995 
3157 198 2 12.01 0.11 11.9496 9.918 0.694003 110.314 9.918 49.8764 2 0 1 0.00558911 0.00326592 0.00270101 -5.39429 -18.1012 -26.3561 
3160 198 3 1.008 0.03 13.174 11.1415 2.38026 111.539 11.1415 51.5626 2 0 1 -0.00851014 -0.00167781 0.00751247 -20.4954 1.73414 7.37338 
3159 198 3 1.008 0.03 12.0432 10.8462 3.68378 110.408 10.8462 52.8661 2 0 1 0.00116943 0.0323451 0.00381238 -4.98797 8.36947 12.7549 
3156 198 2 12.01 0.14 11.5333 12.5711 2.4149 109.898 12.5711 51.5972 2 0 1 -0.00289239 0.00406888 -0.00091036 24.3868 48.5176 75.3941 
3161 198 3 1.008 0.03 10.5116 12.5479 2.72991 108.876 12.5479 51.9123 2 0 1 0.000800796 0.00413823 0.0167968 -15.3721 2.66056 -11.1278 
3162 198 3 1.008 0.03 12.0269 13.2714 3.22382 110.392 13.2714 52.4062 2 0 1 -0.00364293 -0.00957248 0.0243025 -20.8281 -31.4094 -47.0597 
3153 198 1 16 -0.4 11.3518 10.2379 1.93694 109.716 10.2379 51.1193 2 0 1 0.00368072 -0.0013013 -0.00104489 -3.07047 -14.6707 -1.6972 
6236 390 3 1.008 0.03 14.5613 12.7679 6.43559 14.5613 -36.4144 153.983 0 -1 3 -0.0134045 -0.0207023 -0.00874833 3.27214 -6.74195 7.00786 
6328 396 3 1.008 0.03 14.344 9.1374 4.87264 -133.203 156.684 -44.3097 -3 3 -1 0.00493918 0.00385336 -0.014171 -1.34666 7.16379 -0.632063 
6327 396 3 1.008 0.03 13.0832 8.93912 3.6553 -134.464 156.486 -45.5271 -3 3 -1 0.00179136 0.00472904 0.0128696 11.5122 -13.2212 -1.30225 
7564 473 3 1.008 0.03 9.41318 8.75892 4.44 9.41318 156.306 102.805 0 3 2 0.0145822 -0.00964307 0.0207991 4.53613 5.26177 -18.8167 
7557 473 2 12.01 0.11 9.47872 8.88055 5.49641 9.47872 156.428 103.861 0 3 2 0.00658509 -0.00234234 0.000740292 -44.447 -34.1611 0.789934 
6227 390 2 12.01 0.14 15.386 13.5679 4.11409 15.386 -35.6145 151.661 0 -1 3 0.014029 0.00368094 0.00208386 -40.0648 28.1313 31.7372 
6225 390 1 16 -0.4 14.5013 12.5237 4.42495 14.5013 -36.6587 151.972 0 -1 3 0.000963762 -0.0036028 0.00436588 -16.5326 -14.7023 7.62911 
6231 390 3 1.008 0.03 14.6038 14.3805 3.88452 14.6038 -34.8019 151.432 0 -1 3 0.0181903 -0.00725672 0.00296891 39.8388 -19.234 0.674451 
6228 390 2 12.01 0.14 16.3131 13.1782 2.95276 16.3131 -36.0041 150.5 0 -1 3 -0.00220561 0.00437979 -0.000166063 -12.0897 2.45556 10.2356 
6233 390 3 1.008 0.03 15.7362 12.8564 2.09957 15.7362 -36.3259 149.647 0 -1 3 -0.00559601 0.0237142 -0.00506105 -3.9024 -6.98382 -3.97228 
7553 473 1 16 -0.4 9.96517 10.0985 5.89281 9.96517 157.646 104.258 0 3 2 -0.000154981 -0.00736292 0.00178192 11.0742 39.0551 18.8709 
6229 390 2 12.01 0.11 13.7939 12.6647 5.68334 13.7939 -36.5176 153.23 0 -1 3 0.00330754 -0.00032585 -5.96417e-05 31.4852 7.9257 -7.0424 
6232 390 3 1.008 0.03 15.902 13.8173 5.08412 15.902 -35.3651 152.631 0 -1 3 -0.00285486 -0.0211998 -0.0113793 0.0420628 1.16159 -28.8408 
7561 473 3 1.008 0.03 9.42114 12.9592 6.74541 9.42114 160.506 105.11 0 3 2 0.01249 0.00223125 0.00489644 -6.98291 -10.9569 -10.2225 
7556 473 2 12.01 0.14 9.77585 12.5295 5.78885 9.77585 160.077 104.154 0 3 2 -0.00385482 0.00798865 -0.00185194 48.728 61.0002 6.78728 
6237 390 3 1.008 0.03 13.2236 13.5733 5.87851 13.2236 -35.6091 153.426 0 -1 3 -0.00501091 -0.00396918 -0.00865305 -8.35345 -2.07148 -13.615 
6235 390 3 1.008 0.03 13.2674 11.7578 5.9257 13.2674 -37.4245 153.473 0 -1 3 -0.0070056 0.00231565 0.0331115 -10.9674 -4.43397 1.31787 
7555 473 2 12.01 0.14 9.23491 11.2271 5.38961 9.23491 158.774 103.754 0 3 2 -0.000583979 0.00250315 0.00199796 7.55773 -58.2531 -52.1064 
7559 473 3 1.008 0.03 9.35418 11.0802 4.28219 9.35418 158.627 102.647 0 3 2 0.00961024 0.0128825 0.0110139 1.57521 11.7925 20.8537 
6324 396 2 12.01 0.14 15.2005 8.63355 2.99427 -132.347 156.181 -46.1881 -3 3 -1 -0.00214022 0.00109507 -0.00106089 -46.7236 74.0604 -18.8974 
7562 473 3 1.008 0.03 10.8752 12.3933 6.02557 10.8752 159.94 104.39 0 3 2 -0.00936306 -0.00584216 0.00437972 -26.802 4.15438 -13.5185 
7554 473 1 16 -0.4 9.63459 13.514 4.70103 9.63459 161.061 103.066 0 3 2 0.00173988 -0.00166182 0.00309044 2.30049 -20.5721 43.585 
6329 396 3 1.008 0.03 15.4083 9.72698 2.70769 -132.139 157.274 -46.4747 -3 3 -1 -0.00165404 -0.0149151 -0.00149504 -0.301059 -37.9749 13.383 
3155 198 2 12.01 0.14 12.0865 11.1795 2.6626 110.451 11.1795 51.8449 2 0 1 -0.00143929 0.00614759 -0.000486819 40.8521 -4.28152 -23.8449 
8328 521 3 1.008 0.03 11.2402 15.2738 5.03074 109.605 64.4562 54.2131 2 1 1 -0.0190244 -0.000705459 0.00462113 19.6029 17.8041 -11.2549 
8329 521 3 1.008 0.03 9.93926 15.9038 3.33488 108.304 65.0861 52.5172 2 1 1 -0.021514 0.0154716 0.000765658 26.4402 6.52863 -9.7369 
3164 198 3 1.008 0.03 12.8811 9.29764 0.668313 111.246 9.29764 49.8507 2 0 1 0.0259294 0.0196745 0.00566314 -12.4752 16.9635 12.1803 
6234 390 3 1.008 0.03 16.723 14.1347 2.65386 16.723 -35.0477 150.201 0 -1 3 0.000393607 0.0126214 -0.0200514 18.566 -2.83596 -2.05373 
3168 198 3 1.008 0.03 10.4505 14.5709 0.916683 108.815 14.5709 50.099 2 0 1 -0.0191269 -0.00990228 -0.018636 -10.374 7.66524 -4.86688 
3154 198 1 16 -0.4 11.7443 13.0483 1.10705 110.109 13.0483 50.2894 2 0 1 0.00195645 -0.00454865 -0.00120864 13.7383 -11.8975 -14.3137 
3166 198 3 1.008 0.03 12.0542 15.0755 1.4081 110.419 15.0755 50.5905 2 0 1 0.0216849 -0.026901 -0.000753365 11.4397 11.3372 11.5743 
8327 521 3 1.008 0.03 12.593 16.2198 4.20798 110.958 65.4022 53.3903 2 1 1 0.00744805 -0.0191696 0.0119643 5.9473 -5.04006 4.67816 
8323 521 2 12.01 0.14 11.6117 16.2724 4.66984 109.976 65.4547 53.8522 2 1 1 -0.00345789 0.000318573 -0.00252796 -29.5642 10.5979 34.513 
8324 521 2 12.01 0.14 10.6132 16.7564 3.57465 108.978 65.9387 52.757 2 1 1 -0.00632048 -0.00473499 0.00169661 -38.6769 -22.7859 33.3043 
4960 310 3 1.008 0.03 24.8606 13.9855 1.39137 74.043 13.9855 1.39137 1 0 0 -0.0048625 0.00324672 0.0106714 7.36901 -8.73675 0.649567 
7161 448 3 1.008 0.03 17.6406 10.4688 5.63935 17.6406 -87.8959 54.8217 0 -2 1 0.0235603 0.0134103 0.0167954 -18.7162 -25.437 -8.27886 
4958 310 3 1.008 0.03 23.0723 13.6516 1.3826 72.2546 13.6516 1.3826 1 0 0 -0.00402297 -0.00232845 -0.0193449 8.44882 -14.6097 3.83714 
7155 448 2 12.01 0.14 17.8151 12.0418 6.95808 17.8151 -86.3229 56.1404 0 -2 1 0.0041429 -0.00371653 -0.00074425 -27.3512 23.8502 -3.84415 
10314 649 6 16 -0.53 21.866 9.45205 1.43023 21.866 9.45205 1.43023 0 0 0 -0.00106083 -0.00179442 -0.00209768 -33.8185 3.06803 -5.10855 
4954 310 3 1.008 0.03 24.4778 12.0926 3.15168 73.6601 12.0926 3.15168 1 0 0 0.0196143 -0.00607126 -0.0197776 -15.1459 14.883 -5.50857 