ITEM: TIMESTEP
800000
ITEM: NUMBER OF ATOMS
10479
ITEM: BOX BOUNDS pp pp pp
4.0882558190751794e-01 4.9591174418091420e+01
4.0882558190751794e-01 4.9591174418091420e+01
4.0882558190751794e-01 4.9591174418091420e+01
ITEM: ATOMS id mol type mass q x y z xu yu zu ix iy iz vx vy vz fx fy fz 
2435 153 2 12.01 0.14 2.68186 6.53144 1.68927 101.047 55.7138 50.8716 2 1 1 0.00169275 0.00518153 0.00702081 10.815 -35.7628 -9.92948 
8562 536 1 16 -0.4 2.96551 6.75336 5.59139 2.96551 6.75336 -43.591 0 0 -1 0.00117852 -0.00234086 0.00459446 -14.9873 31.5739 -24.6273 
2436 153 2 12.01 0.14 4.12385 7.10252 1.6388 102.489 56.2849 50.8212 2 1 1 -0.00181019 -0.00152265 0.000629576 -34.2497 31.8623 20.3872 
2434 153 1 16 -0.4 4.2454 8.07621 2.69 102.61 57.2586 51.8723 2 1 1 0.00464046 0.000422788 0.00119571 -18.396 -11.8232 -11.5275 
2440 153 3 1.008 0.03 2.73348 5.78555 2.54304 101.098 54.9679 51.7254 2 1 1 0.0295121 0.00328531 -0.0108531 -14.0588 14.7858 -25.724 
2439 153 3 1.008 0.03 1.88652 7.24728 1.86492 100.251 56.4296 51.0473 2 1 1 -0.00629824 0.0179789 -0.0142018 4.90876 10.0139 10.4894 
4408 276 3 1.008 0.03 4.94461 1.29717 5.16173 4.94461 50.4795 152.709 0 1 3 0.0179814 -0.00467028 0.0051648 -13.6964 19.4494 -0.209907 
4411 276 3 1.008 0.03 7.1885 2.43266 5.56502 7.1885 51.615 153.112 0 1 3 0.00526831 -0.0113192 0.010417 -6.14911 -5.60776 3.23754 
4402 276 1 16 -0.4 3.86702 0.699921 2.6904 3.86702 49.8823 150.237 0 1 3 0.00145207 -0.00107811 -0.00182463 16.9722 -16.1688 -3.23137 
8564 536 2 12.01 0.14 2.14688 7.33893 6.57607 2.14688 7.33893 -42.6063 0 0 -1 -0.000399901 0.000730345 -0.000989431 -2.46231 10.6693 39.563 
8566 536 2 12.01 0.11 3.47947 5.53216 5.8728 3.47947 5.53216 -43.3095 0 0 -1 -0.000897486 -0.00518823 0.00273576 6.61404 -30.663 3.32785 
4401 276 1 16 -0.4 6.40086 1.79999 3.7002 6.40086 50.9823 151.247 0 1 3 -0.00624008 -0.00418521 -0.00225005 17.013 -3.90811 24.0068 
8563 536 2 12.01 0.14 1.46815 8.58414 6.0112 1.46815 8.58414 -43.1712 0 0 -1 -9.60487e-05 0.00382703 -0.00354869 -2.07737 37.0091 5.29191 
2448 153 3 1.008 0.03 6.21316 7.94302 3.18885 104.578 57.1254 52.3712 2 1 1 -0.00806293 -0.00948652 0.0131991 9.56174 -0.355657 -2.10474 
4405 276 2 12.01 0.11 7.50938 2.1824 4.55773 7.50938 51.3647 152.105 0 1 3 0.00706693 0.0026652 0.00550114 -19.0982 21.7682 -4.43943 
8574 536 3 1.008 0.03 4.3877 5.44722 5.3032 4.3877 5.44722 -43.8791 0 0 -1 0.0029495 -0.0348791 -0.0288786 4.65186 -7.00757 -10.4141 
4403 276 2 12.01 0.14 5.5778 0.875215 4.41268 5.5778 50.0576 151.96 0 1 3 0.00337379 0.00663323 -0.00545466 -0.37634 -38.324 6.12984 
4414 276 3 1.008 0.03 2.64649 0.46683 1.04384 2.64649 49.6492 148.591 0 1 3 -0.0101609 0.0154415 0.0120728 23.902 -17.4448 17.6083 
8569 536 3 1.008 0.03 2.76227 7.72463 7.42368 2.76227 7.72463 -41.7587 0 0 -1 -0.00135046 -0.00402672 0.029627 -4.48138 -12.3673 -15.4864 
8570 536 3 1.008 0.03 1.43137 6.65438 7.05413 1.43137 6.65438 -42.1282 0 0 -1 0.00355711 0.00102875 0.0204406 1.46461 0.769483 -9.89056 
8576 536 3 1.008 0.03 2.81543 4.66129 5.67872 2.81543 4.66129 -43.5036 0 0 -1 0.0116745 -0.0109743 -0.0188056 5.68608 13.7917 3.7003 
5323 333 3 1.008 0.03 0.863096 4.63418 3.9996 50.0454 102.999 53.1819 1 2 1 0.013621 -0.0184656 0.0216572 -32.815 3.90514 -5.29778 
8575 536 3 1.008 0.03 3.82779 5.55527 6.87459 3.82779 5.55527 -42.3078 0 0 -1 0.0025579 -0.00834439 0.00136723 2.96641 -7.54249 21.082 
4413 276 3 1.008 0.03 7.88405 3.16194 4.2585 7.88405 52.3443 151.806 0 1 3 -0.0161784 0.0225135 -0.00123644 6.77148 -5.96752 -9.44806 
4412 276 3 1.008 0.03 8.31233 1.46181 4.66678 8.31233 50.6442 152.214 0 1 3 -0.0018861 -0.0309119 0.00632312 2.17099 -5.10995 -6.44421 
7308 457 3 1.008 0.03 0.457949 1.54422 2.13602 0.457949 99.9089 2.13602 0 2 0 -0.00207558 0.0276338 0.0119623 37.4674 -1.94537 12.1866 
3039 190 3 1.008 0.03 2.5356 1.10776 6.52159 51.7179 50.2901 -42.6608 1 1 -1 -0.0147726 0.018841 -0.0294283 -11.3459 4.92115 -10.2895 
8561 536 1 16 -0.4 0.507366 8.25479 5.0459 0.507366 8.25479 -44.1364 0 0 -1 0.00142038 -0.00544713 0.00219169 -18.7258 -7.73025 -13.5068 
2443 153 3 1.008 0.03 1.11616 4.19522 0.698441 99.4809 53.3776 49.8808 2 1 1 -0.00501471 0.0105435 0.0147385 9.10805 23.8405 -3.75657 
2442 153 3 1.008 0.03 4.25112 7.63141 0.697171 102.616 56.8138 49.8795 2 1 1 -0.00323103 -0.0132539 0.00190282 9.10654 -5.82946 -4.62833 
2441 153 3 1.008 0.03 4.81033 6.31399 1.83849 103.175 55.4963 51.0208 2 1 1 -0.00644491 -0.00543912 -0.0114618 17.1684 -11.9558 -8.98088 
1583 99 3 1.008 0.03 7.83134 3.44505 0.511534 57.0137 -45.7373 49.6939 1 -1 1 0.000850139 0.00999664 -0.000999354 -9.81853 -7.80133 -6.09161 
2592 162 3 1.008 0.03 15.3302 0.535518 4.51438 15.3302 0.535518 53.6967 0 0 1 -0.024121 0.0245988 -0.0114102 8.6891 1.07253 -1.10541 
8923 558 3 1.008 0.03 10.67 1.69197 3.75587 59.8523 50.8743 3.75587 1 1 0 0.00251112 0.000315783 0.0225376 -20.9934 4.76542 -5.17979 
8917 558 2 12.01 0.11 11.4654 2.17471 4.27665 60.6477 51.3571 4.27665 1 1 0 0.00310017 -0.00264415 -0.000591411 28.1212 -26.97 4.65923 
2578 162 1 16 -0.4 16.4181 2.06419 5.37739 16.4181 2.06419 54.5597 0 0 1 -0.000125201 -0.00249838 -0.00986947 -3.38897 -17.7614 -4.01349 
3245 203 3 1.008 0.03 15.1712 7.26957 2.68304 64.3536 56.4519 101.048 1 1 2 -0.0214935 -0.000964862 -0.00774093 3.77133 3.2091 2.62538 
3233 203 1 16 -0.4 15.2815 5.23267 2.17271 64.4639 54.415 100.537 1 1 2 0.000803358 0.00137944 -0.000794335 16.2231 42.2866 27.1397 
3243 203 3 1.008 0.03 15.6454 6.16483 4.06526 64.8277 55.3472 102.43 1 1 2 -0.00358409 0.0270199 -0.0017548 -2.32102 9.61015 -24.5515 
3237 203 2 12.01 0.11 15.7515 6.39042 2.96464 64.9339 55.5728 101.329 1 1 2 -0.0071934 0.00636084 -0.00461904 -31.47 -51.8943 5.16815 
3235 203 2 12.01 0.14 16.007 4.06822 2.50334 65.1894 53.2506 100.868 1 1 2 -0.000596168 -0.00749128 -0.000803519 22.8944 9.8886 -4.31369 
3240 203 3 1.008 0.03 16.1306 3.92318 3.56802 65.313 53.1055 101.933 1 1 2 -0.013453 0.0158386 -0.00687589 -12.9148 -0.351604 7.7843 
3241 203 3 1.008 0.03 15.7269 1.99393 2.22605 64.9092 51.1763 100.591 1 1 2 -0.0127403 -0.00803292 0.0141921 -16.3259 18.8372 -8.89303 
2582 162 2 12.01 0.11 16.1727 0.658003 5.20986 16.1727 0.658003 54.3922 0 0 1 -0.00560567 -0.00286331 -0.00104903 -23.7898 17.3038 -12.5052 
4752 297 3 1.008 0.03 12.7257 5.41465 6.70629 -36.4567 54.597 -91.6584 -1 1 -2 0.0110563 -0.038 -0.00249079 -19.9342 24.0218 -9.44463 
3244 203 3 1.008 0.03 16.7912 6.51776 2.79549 65.9736 55.7001 101.16 1 1 2 -0.00173134 0.0130623 -0.00621183 18.6164 10.4358 -6.26794 
8925 558 3 1.008 0.03 11.8499 2.87698 3.52963 61.0323 52.0593 3.52963 1 1 0 0.0257623 -0.0249386 -0.0200747 5.51349 0.702272 8.39417 
8913 558 1 16 -0.4 12.393 1.07285 4.56064 61.5754 50.2552 4.56064 1 1 0 0.000684478 -0.0027299 -0.00215874 -33.5603 3.50439 6.09678 
3236 203 2 12.01 0.14 15.2486 2.95137 1.87213 64.4309 52.1337 100.237 1 1 2 0.00382949 0.00118214 0.00730609 -20.3337 -31.7752 39.5458 
3242 203 3 1.008 0.03 14.259 3.10098 2.42359 63.4413 52.2833 100.788 1 1 2 -0.0107098 0.011057 -0.00164716 21.5448 -17.0229 -27.4768 
4742 297 2 12.01 0.11 13.4968 4.9224 7.21569 -35.6856 54.1047 -91.149 -1 1 -2 -0.00466112 -0.0021109 0.00374782 10.5443 -22.6368 -32.3525 
8924 558 3 1.008 0.03 11.1139 2.70404 5.17581 60.2962 51.8864 5.17581 1 1 0 -0.00722942 0.00580037 0.00643228 0.662036 -5.48565 -5.55643 
2589 162 3 1.008 0.03 16.7895 6.19892 7.02034 16.7895 6.19892 56.2027 0 0 1 0.0148572 -0.00364477 -0.00865663 34.254 -8.02904 -23.2646 
4751 297 3 1.008 0.03 13.6371 4.07473 6.50972 -35.5453 53.2571 -91.855 -1 1 -2 -0.00711235 -0.00718085 -0.00948743 3.88565 0.291107 21.9359 
1833 115 3 1.008 0.03 15.223 8.57985 6.12354 15.223 8.57985 -141.424 0 0 -3 -0.00552967 0.00443402 0.0028555 -7.10384 15.1013 1.97939 
1584 99 3 1.008 0.03 9.42889 3.55262 1.20717 58.6112 -45.6297 50.3895 1 -1 1 -0.016875 0.00725426 0.00273992 -5.76937 17.66 11.7697 
4750 297 3 1.008 0.03 14.3481 5.53904 7.12219 -34.8343 54.7214 -91.2425 -1 1 -2 0.0248063 0.00242562 -0.0209524 20.0531 13.5667 5.9486 
2584 162 3 1.008 0.03 16.6585 3.95488 7.16721 16.6585 3.95488 56.3496 0 0 1 0.0276381 0.00134585 0.000241727 -2.66049 -15.5712 8.68482 
3234 203 1 16 -0.4 15.2003 2.9625 0.444742 64.3827 52.1448 98.8094 1 1 2 0.00601969 0.008782 0.00420897 -20.9929 -9.00251 9.25373 
1447 91 3 1.008 0.03 23.9414 0.588175 5.06736 73.1237 98.9529 54.2497 1 2 1 -0.00691726 -0.0149324 -0.00795765 6.90509 0.593957 -15.1568 
8770 549 1 16 -0.4 20.6368 0.839605 4.1101 -28.5455 -48.3427 4.1101 -1 -1 0 0.000152161 -0.00361069 0.000307827 -11.8739 0.631149 10.028 
3264 204 3 1.008 0.03 22.6009 1.61955 0.782238 120.966 50.8019 99.1469 2 1 2 0.00332987 0.0168494 0.0224381 6.93171 -6.76364 5.70472 
3239 203 3 1.008 0.03 17.0535 4.0969 2.22625 66.2358 53.2793 100.591 1 1 2 -0.0152553 -0.0101102 0.00340603 1.42711 2.9519 -14.6519 
2583 162 3 1.008 0.03 18.3942 3.85944 7.41613 18.3942 3.85944 56.5985 0 0 1 -0.0233973 -0.0140052 0.00867681 0.995573 -4.27656 -1.97627 
3427 215 2 12.01 0.14 24.7132 5.02985 1.49262 73.8956 5.02985 50.675 1 0 1 -0.00426595 0.00403679 0.00601462 -32.3807 19.1915 -8.58379 
3426 215 1 16 -0.4 23.3859 5.854 3.34254 72.5682 5.854 52.5249 1 0 1 0.000569091 -0.00405977 -0.005787 -29.7927 28.4896 54.0899 
2580 162 2 12.01 0.14 17.6467 2.26887 6.03471 17.6467 2.26887 55.2171 0 0 1 0.00397107 0.00136337 -0.000629124 -27.0152 17.2304 36.2917 
3434 215 3 1.008 0.03 23.8249 3.80679 3.02225 73.0073 3.80679 52.2046 1 0 1 0.025232 0.00671922 -0.00743335 -6.62803 34.7881 -4.65336 
8784 549 3 1.008 0.03 22.2352 1.92596 3.24602 -26.9471 -47.2564 3.24602 -1 -1 0 -0.00504141 0.00679326 0.0233911 -9.84197 -6.55815 -10.4571 
8769 549 1 16 -0.4 18.9205 1.13719 0.806603 -30.2619 -48.0452 0.806603 -1 -1 0 0.00130038 -0.00448753 0.000894071 0.58166 -9.83213 -37.607 
2579 162 2 12.01 0.14 17.6015 3.73348 6.67292 17.6015 3.73348 55.8553 0 0 1 -0.00554734 -0.00154221 0.00114256 -1.67685 -29.04 -4.55853 
2577 162 1 16 -0.4 17.6331 4.75668 5.71826 17.6331 4.75668 54.9006 0 0 1 -0.00483031 0.00473968 -0.00135444 11.2202 -7.74968 -6.46801 
2581 162 2 12.01 0.11 17.7231 5.98873 6.37784 17.7231 5.98873 55.5602 0 0 1 -0.00294085 -0.004017 0.00790187 -35.6543 29.259 1.12662 
2588 162 3 1.008 0.03 17.6871 6.71886 5.51659 17.6871 6.71886 54.6989 0 0 1 -0.0260898 0.00520095 -0.016522 11.5084 -8.08624 28.0422 
8775 549 3 1.008 0.03 19.4864 2.48553 2.21523 -29.6959 -46.6968 2.21523 -1 -1 0 -0.00259771 0.023109 0.00221312 -0.418219 10.5953 -5.16589 
8776 549 3 1.008 0.03 18.1317 1.41405 2.54462 -31.0506 -47.7683 2.54462 -1 -1 0 -0.00917273 -0.0284929 -0.00252963 -2.42535 15.8431 19.4163 
3558 223 2 12.01 0.11 20.2895 7.06447 1.44615 -78.0752 -91.3002 50.6285 -2 -2 1 0.000379306 -0.00800587 0.000439327 -26.2008 -45.0351 18.9367 
3568 223 3 1.008 0.03 19.5374 6.25427 1.15524 -78.8273 -92.1104 50.3376 -2 -2 1 0.0474192 0.0311544 -0.00844243 23.1465 29.9941 4.95296 
3566 223 3 1.008 0.03 20.8347 6.57693 2.27672 -77.53 -91.7878 51.4591 -2 -2 1 -0.0090748 -0.0140611 0.011375 0.172949 11.6271 -9.26547 
8771 549 2 12.01 0.14 19.1195 1.48019 2.11212 -30.0629 -47.7022 2.11212 -1 -1 0 0.00203039 -0.000416588 0.000825788 -0.666 7.49892 44.7923 
3567 223 3 1.008 0.03 19.7332 7.90576 1.84793 -78.6315 -90.4589 51.0303 -2 -2 1 -0.00565201 -0.0140549 -0.0345148 -1.52134 3.59252 -3.06442 
8772 549 2 12.01 0.14 20.049 0.531877 2.88909 -29.1333 -48.6505 2.88909 -1 -1 0 0.00195798 -0.00576677 0.00578813 3.63549 -51.7636 -10.6617 
8782 549 3 1.008 0.03 20.8839 2.87978 3.99091 -28.2985 -46.3026 3.99091 -1 -1 0 -0.00473104 0.0245124 0.0425292 8.35948 -14.8931 -3.26709 
2587 162 3 1.008 0.03 18.6211 6.02317 7.03487 18.6211 6.02317 56.2172 0 0 1 0.0211077 -0.000412649 0.00338377 -7.48769 8.72997 -16.2218 
8774 549 2 12.01 0.11 21.4616 1.92638 4.01382 -27.7207 -47.256 4.01382 -1 -1 0 -0.00123862 0.00864602 -0.00166977 30.818 53.4784 15.6353 
8783 549 3 1.008 0.03 22.1194 2.0094 4.88916 -27.063 -47.173 4.88916 -1 -1 0 0.00401986 -0.00259945 0.0131255 -13.6266 -1.55631 1.65382 
3556 223 2 12.01 0.14 21.9673 8.5028 0.564769 -76.3974 -89.8619 49.7471 -2 -2 1 0.00371051 -0.00184533 0.00200245 8.94994 -5.31865 47.7406 
3425 215 1 16 -0.4 24.2069 5.88643 0.444128 73.3893 5.88643 49.6265 1 0 1 -0.000249557 -0.00477316 -0.00610302 24.4981 -20.1209 24.7429 
2585 162 3 1.008 0.03 18.4554 2.05474 5.38393 18.4554 2.05474 54.5663 0 0 1 0.0184319 -0.00091138 -0.00494857 18.4711 4.85837 -12.696 
3439 215 3 1.008 0.03 21.6044 5.19381 4.16837 70.7867 5.19381 53.3507 1 0 1 -0.0134021 -0.00707263 -0.023513 -22.5173 -8.88896 -2.29996 
3561 223 3 1.008 0.03 22.6207 8.40986 1.43468 -75.744 -89.9548 50.617 -2 -2 1 0.0405117 -0.0138056 0.00896796 -6.61586 -13.2586 3.46833 
2586 162 3 1.008 0.03 17.6787 1.47482 6.81028 17.6787 1.47482 55.9926 0 0 1 -0.00170689 0.0218761 0.0135811 3.09398 18.6762 -5.00616 
1442 91 1 16 -0.4 23.8815 1.90628 7.24739 73.0639 100.271 56.4297 1 2 1 -0.0027581 0.00426776 0.000751126 1.94924 9.88915 33.8151 
3433 215 3 1.008 0.03 22.5997 4.48237 2.03706 71.782 4.48237 51.2194 1 0 1 -0.00552485 0.0249262 -0.00452048 -0.725541 7.45678 -8.96023 
1444 91 2 12.01 0.14 24.2656 0.543799 7.13268 73.4479 98.9085 56.315 1 2 1 -0.00746629 -0.00127386 0.00164441 31.2433 12.9395 6.27759 
3440 215 3 1.008 0.03 22.9897 5.05179 5.17041 72.172 5.05179 54.3528 1 0 1 0.0196486 0.01891 -0.00600409 6.03408 -10.3709 25.3466 
174 11 3 1.008 0.03 20.8218 8.54685 4.8345 119.187 57.7292 103.199 2 1 2 -0.00866101 0.00688417 0.00834355 -2.8995 -8.79716 16.4299 
652 41 3 1.008 0.03 21.302 6.95595 7.09132 21.302 6.95595 56.2737 0 0 1 0.0112098 -0.0199185 0.0205158 17.911 -17.7033 13.8573 
3262 204 3 1.008 0.03 21.1462 2.61664 0.529203 119.511 51.799 98.8939 2 1 2 -0.0182878 -0.00666962 0.00989325 13.2417 5.9488 2.69988 
3428 215 2 12.01 0.14 23.5443 4.77435 2.48956 72.7266 4.77435 51.6719 1 0 1 0.000321104 0.00756336 -0.00882374 23.8712 -56.0355 8.08152 
3430 215 2 12.01 0.11 22.4671 5.69243 4.51692 71.6495 5.69243 53.6993 1 0 1 -0.000415848 0.000486465 0.00132162 42.7061 25.5908 -66.5904 
1956 123 2 12.01 0.14 24.6791 8.58335 7.08748 -24.5033 8.58335 -42.0949 -1 0 -1 -0.00162111 -0.00386036 -0.00315804 19.2956 9.95698 4.18524 
3438 215 3 1.008 0.03 22.1796 6.67665 4.94926 71.362 6.67665 54.1316 1 0 1 -0.0117924 -0.0243009 -0.0267299 8.55336 -15.8496 -1.84066 
8780 549 3 1.008 0.03 16.8746 0.693855 0.725267 -32.3077 -48.4885 0.725267 -1 -1 0 0.00716174 -0.0197985 0.0276686 16.7174 -11.0935 11.3165 
3431 215 3 1.008 0.03 24.8712 4.04549 1.05828 74.0535 4.04549 50.2406 1 0 1 -0.0188073 -0.00559031 0.0136494 11.9152 -0.637523 -2.49904 
2446 153 3 1.008 0.03 5.78653 9.15867 1.89461 104.151 58.341 51.077 2 1 1 0.0151772 -0.00646126 0.00832321 9.8701 -3.13452 -12.4851 
2491 156 3 1.008 0.03 3.34753 10.1473 0.574498 3.34753 10.1473 49.7568 0 0 1 0.0252925 -0.0136966 -0.00469989 -14.0869 27.9199 18.6936 
2438 153 2 12.01 0.11 5.5038 8.66445 2.80518 103.868 57.8468 51.9875 2 1 1 -0.00626724 0.0154787 -0.000404499 -13.4095 26.9296 22.3945 
2447 153 3 1.008 0.03 5.37535 9.51266 3.52465 103.74 58.695 52.707 2 1 1 0.0347081 0.00581807 0.00845563 6.96987 -19.6124 -7.45402 
8567 536 3 1.008 0.03 2.20083 9.19525 5.53198 2.20083 9.19525 -43.6504 0 0 -1 -0.00768647 -0.0104968 0.00973282 14.7122 3.11418 -9.27905 
2493 156 3 1.008 0.03 1.96755 10.3466 1.6589 1.96755 10.3466 50.8412 0 0 1 -0.000288872 -0.0134565 0.00370525 13.5592 12.747 1.13295 
5304 332 3 1.008 0.03 6.5683 13.7889 1.32252 -42.614 13.7889 99.6872 -1 0 2 0.00437711 -0.00819206 -0.001379 12.7681 14.2383 18.7432 
2481 156 1 16 -0.4 2.52869 12.1529 0.685552 2.52869 12.1529 49.8679 0 0 1 -0.00441558 0.00286769 0.00757484 4.684 -12.2845 2.58759 
8568 536 3 1.008 0.03 1.0922 9.31858 6.76688 1.0922 9.31858 -42.4155 0 0 -1 -0.0175399 0.0123421 -0.00962362 -1.23949 -22.6538 -7.42907 
8572 536 3 1.008 0.03 0.876725 9.59234 3.43072 0.876725 9.59234 -45.7516 0 0 -1 0.0101575 0.00354473 -0.00925906 -8.39574 -5.37437 8.09666 
5461 342 2 12.01 0.11 1.91427 15.3122 7.0747 1.91427 64.4945 7.0747 0 1 0 0.000383957 -0.00435026 -0.00602383 -41.4739 60.418 -13.9936 
2485 156 2 12.01 0.11 2.876 10.8848 1.30927 2.876 10.8848 50.4916 0 0 1 -0.00737998 -0.000994638 0.000241507 5.61944 -19.0733 -37.6472 
5755 360 3 1.008 0.03 6.0479 13.4593 7.30552 -92.3168 -35.723 -140.242 -2 -1 -3 0.00692238 -0.00054868 0.0105257 6.63374 0.061082 6.19656 
8021 502 2 12.01 0.11 6.28391 16.7508 6.32302 104.649 115.115 104.688 2 2 2 -0.00138576 -0.00139964 -0.00231985 35.4708 10.3075 -35.7621 
5309 332 3 1.008 0.03 6.36046 11.865 4.36745 -42.8219 11.865 102.732 -1 0 2 0.00346389 0.0095079 0.00889603 14.4104 7.6419 -13.5593 
5307 332 3 1.008 0.03 6.10091 11.7584 2.67584 -43.0814 11.7584 101.041 -1 0 2 -0.00183269 -0.00811185 1.27022e-05 6.60139 7.70224 -3.25109 
5301 332 2 12.01 0.11 6.85209 12.1129 3.39321 -42.3303 12.1129 101.758 -1 0 2 0.00636543 0.000786929 0.00362395 -8.7781 -21.1407 10.4774 
5457 342 1 16 -0.4 2.44494 14.7363 5.92039 2.44494 63.9186 5.92039 0 1 0 -0.00280689 -0.000482023 -0.0119225 -0.445803 -16.0259 -21.6309 
5459 342 2 12.01 0.14 2.52463 15.6898 4.87467 2.52463 64.8722 4.87467 0 1 0 -0.0077674 0.00244481 0.00178388 1.76165 -26.4005 -11.7479 
8029 502 3 1.008 0.03 5.61491 16.7729 5.4659 103.98 115.138 103.831 2 2 2 -0.0108046 -0.0148501 -0.00399407 -5.20224 -0.758118 1.83896 
5308 332 3 1.008 0.03 7.75521 11.4686 3.30094 -41.4271 11.4686 101.666 -1 0 2 0.00252375 0.00879954 0.0126637 -10.344 12.9282 -0.545409 
5297 332 1 16 -0.4 7.11606 13.5104 3.32081 -42.0663 13.5104 101.686 -1 0 2 0.00407299 0.00551625 0.000691424 0.356024 -0.409177 -1.88829 
5465 342 3 1.008 0.03 3.87618 14.4651 3.6857 3.87618 63.6475 3.6857 0 1 0 0.000355363 0.0384103 0.017626 10.5579 -27.3628 5.93051 
5299 332 2 12.01 0.14 7.40987 14.0508 2.02226 -41.7725 14.0508 100.387 -1 0 2 -0.00101835 0.0028445 -0.00230622 -68.6757 -21.7043 4.05209 
5756 360 3 1.008 0.03 4.78677 12.8869 6.29563 -93.5779 -36.2954 -141.251 -2 -1 -3 0.0086421 0.0143182 -0.00499548 -5.0104 13.6359 22.5688 
2487 156 3 1.008 0.03 4.47154 12.7147 0.794881 4.47154 12.7147 49.9772 0 0 1 0.0208953 0.0308654 -0.0280577 3.37018 2.76931 -6.89522 
5466 342 3 1.008 0.03 2.28392 14.7974 2.89476 2.28392 63.9797 2.89476 0 1 0 -0.00480143 -0.0032521 -0.0169266 21.7248 1.52522 3.29432 
5460 342 2 12.01 0.14 3.12623 15.1816 3.51866 3.12623 64.364 3.51866 0 1 0 -0.0037619 0.00798262 -0.00232146 -27.4172 33.8115 13.6236 
2492 156 3 1.008 0.03 3.62772 11.0135 2.09333 3.62772 11.0135 51.2757 0 0 1 0.00416576 0.0323704 0.00110052 -7.8414 -0.0541938 4.35007 
5306 332 3 1.008 0.03 6.73826 16.0307 2.4412 -42.4441 16.0307 100.806 -1 0 2 -0.0231719 -0.00782332 0.0204061 -13.7702 7.01628 2.43342 
5300 332 2 12.01 0.14 7.633 15.5174 2.1612 -41.5493 15.5174 100.526 -1 0 2 0.00369548 -0.000639141 0.0057117 13.8873 4.82945 -19.9124 
8027 502 3 1.008 0.03 6.92424 15.8705 6.21914 105.289 114.235 104.584 2 2 2 0.0082468 -0.0374612 0.0111459 -5.91329 -2.57874 -1.15753 
5303 332 3 1.008 0.03 8.18181 13.6159 1.52728 -41.0005 13.6159 99.892 -1 0 2 0.013993 -0.0122013 -0.00567698 46.5428 -22.8403 -11.8499 
5749 360 2 12.01 0.11 5.00936 13.1626 7.36597 -93.3553 -36.0197 -140.181 -2 -1 -3 0.0111786 -0.00495976 0.00172472 -18.4825 -0.982878 -9.68999 
5752 360 3 1.008 0.03 5.87755 10.8662 6.83226 -92.4871 -38.3161 -140.715 -2 -1 -3 -0.00728693 -0.00487005 -0.00416344 21.7668 2.86016 -17.3864 
5751 360 3 1.008 0.03 4.10628 10.6389 6.8429 -94.2584 -38.5434 -140.704 -2 -1 -3 -0.0415148 -0.0114636 -0.0241177 14.1008 2.89967 0.652328 
5464 342 3 1.008 0.03 3.14516 16.4511 5.29019 3.14516 65.6334 5.29019 0 1 0 -0.00768145 0.0144861 0.0312247 5.34632 20.9021 -1.95053 
5305 332 3 1.008 0.03 8.03762 15.9069 1.2241 -41.1447 15.9069 99.5888 -1 0 2 -0.042487 -0.0157187 0.0086328 -8.7227 2.40045 -2.29711 
5472 342 3 1.008 0.03 2.52723 16.625 1.40243 2.52723 65.8073 1.40243 0 1 0 0.00099291 -0.0177984 -0.0192782 -10.265 -13.3841 -22.3761 
5463 342 3 1.008 0.03 1.50529 15.9991 4.69394 1.50529 65.1815 4.69394 0 1 0 0.0219161 -0.00173674 -0.0097764 -3.44037 14.3004 -3.0271 
5458 342 1 16 -0.4 3.89914 16.2487 2.9565 3.89914 65.431 2.9565 0 1 0 0.00276157 0.000378973 0.000329745 -15.4396 -4.11336 -22.3975 
8028 502 3 1.008 0.03 5.75399 16.6886 7.22026 104.119 115.053 105.585 2 2 2 -0.0245157 -0.0243135 0.0245677 -9.13956 -7.71801 20.1851 
5469 342 3 1.008 0.03 0.97068 16.0138 6.8833 0.97068 65.1962 6.8833 0 1 0 0.0158034 0.00753759 0.00248764 54.7736 -39.0144 9.65405 
1327 83 3 1.008 0.03 11.3119 11.6877 0.765364 60.4943 11.6877 0.765364 1 0 0 0.010389 -0.0182978 -0.00803267 3.08181 8.32983 12.0068 
1840 115 3 1.008 0.03 13.1165 10.039 4.0065 13.1165 10.039 -143.541 0 0 -3 0.0124252 -0.026569 0.00926566 20.61 5.88221 -1.05577 
1045 66 2 12.01 0.11 9.39041 11.4186 7.17671 -39.7919 -86.9461 154.724 -1 -2 3 -0.00103299 -0.00971803 0.00343273 28.6387 16.1343 -8.34763 
7165 448 3 1.008 0.03 16.1719 13.3121 7.34207 16.1719 -35.8702 56.5244 0 -1 1 -0.00515849 -0.00898887 -0.000884757 15.7022 -0.205148 15.5536 
1328 83 3 1.008 0.03 12.9718 11.9473 0.923082 62.1541 11.9473 0.923082 1 0 0 -0.0190003 0.00679385 0.0100076 16.8593 7.03504 -4.16339 
735 46 3 1.008 0.03 9.12559 9.94201 1.16844 9.12559 -137.605 1.16844 0 -3 0 0.00398956 0.00528697 -0.00290294 2.36413 11.9314 -17.0792 
5298 332 1 16 -0.4 8.63565 15.6807 3.10414 -40.5467 15.6807 101.469 -1 0 2 0.00365116 -0.00446476 -0.00217039 9.17105 0.657004 14.7304 
1834 115 3 1.008 0.03 13.6223 9.20465 5.99067 13.6223 9.20465 -141.556 0 0 -3 -0.00156731 -0.00804647 -0.0139744 -25.6462 -9.4799 -3.63777 
10114 635 8 19 -0.16 15.768 11.4553 0.732502 114.133 60.6376 0.732502 2 1 0 0.00239712 -0.00253874 0.00335358 7.41816 -5.90067 -26.9275 
1318 83 2 12.01 0.11 12.0899 11.8513 1.513 61.2722 11.8513 1.513 1 0 0 -0.00822754 -0.00370441 0.00654554 -20.9976 -8.73596 15.2076 
1322 83 3 1.008 0.03 9.90877 12.6279 3.2092 59.0911 12.6279 3.2092 1 0 0 -0.0262865 0.00782935 -0.00269762 25.5598 5.08695 4.66227 
1324 83 3 1.008 0.03 11.874 14.0418 7.20031 61.0563 14.0418 7.20031 1 0 0 -0.0142888 0.00657318 -0.0074741 -9.50761 -5.32347 9.05172 
1326 83 3 1.008 0.03 12.1986 10.9489 2.12698 61.381 10.9489 2.12698 1 0 0 -0.0138728 -0.000318984 0.0289349 -1.59475 2.06315 -8.48154 
1315 83 2 12.01 0.14 11.1068 13.8981 4.53784 60.2891 13.8981 4.53784 1 0 0 0.00423942 0.00111712 0.00321698 -22.0176 -0.820812 50.8932 
1316 83 2 12.01 0.14 10.9826 12.7853 3.51769 60.165 12.7853 3.51769 1 0 0 -0.00298579 0.00644481 -0.00368057 -11.4313 -12.4704 -41.8076 
4952 310 3 1.008 0.03 13.8908 14.5189 2.64681 63.0732 14.5189 2.64681 1 0 0 -0.0282143 -0.0037198 -0.0043213 15.7308 0.974038 -7.33889 
4951 310 3 1.008 0.03 15.0203 13.1929 2.54681 64.2026 13.1929 2.54681 1 0 0 -0.00230457 -0.00523276 0.0479922 -0.101003 4.37348 9.39396 
4947 310 2 12.01 0.14 14.9588 14.2795 2.42966 64.1411 14.2795 2.42966 1 0 0 0.00611506 0.00279894 -0.00325601 -50.6282 -29.6156 -15.0919 
4945 310 1 16 -0.4 15.8252 14.9186 3.31837 65.0075 14.9186 3.31837 1 0 0 -0.00448184 -0.00147843 0.0018387 25.4507 15.4089 24.7757 
1321 83 3 1.008 0.03 11.3238 11.8733 3.98497 60.5062 11.8733 3.98497 1 0 0 0.0117318 0.00976164 -0.000618072 -4.10754 -6.30655 6.38103 
1313 83 1 16 -0.4 12.4237 13.8148 5.1588 61.6061 13.8148 5.1588 1 0 0 -0.00349647 -0.00186494 0.00288462 -29.5873 4.33631 11.1655 
1317 83 2 12.01 0.11 12.4384 14.5081 6.42069 61.6207 14.5081 6.42069 1 0 0 -0.00301488 -0.00317041 0.00398296 23.1154 51.543 -34.3492 
4949 310 2 12.01 0.11 15.2741 14.951 4.68732 64.4564 14.951 4.68732 1 0 0 0.0011736 -0.0057681 0.0038926 59.054 -12.8963 -39.1477 
4955 310 3 1.008 0.03 15.0339 13.9488 4.99493 64.2163 13.9488 4.99493 1 0 0 0.00456401 0.0204331 -0.0349549 -8.55256 -8.40963 3.75665 
4948 310 2 12.01 0.14 15.3091 14.472 0.947303 64.4915 14.472 0.947303 1 0 0 -0.00157234 0.00360205 0.00032932 19.641 -2.91389 27.3046 
1314 83 1 16 -0.4 11.8453 12.9752 2.3669 61.0276 12.9752 2.3669 1 0 0 0.00298997 0.00645642 -0.00602488 -1.19794 11.3741 5.03883 
1320 83 3 1.008 0.03 10.8428 14.9196 4.31473 60.0252 14.9196 4.31473 1 0 0 0.00582749 0.0119795 -0.00413798 8.32205 5.00685 -24.2528 
1319 83 3 1.008 0.03 10.2044 13.7479 5.23041 59.3868 13.7479 5.23041 1 0 0 -0.0100656 -0.00115935 0.00399694 40.8661 -4.83249 -11.3956 
4946 310 1 16 -0.4 16.7116 14.4096 0.95954 65.894 14.4096 0.95954 1 0 0 -0.00399714 0.00248185 0.0024902 -10.4902 -12.0104 -38.9895 
1838 115 3 1.008 0.03 13.7282 11.5903 4.52816 13.7282 11.5903 -143.019 0 0 -3 0.00784622 -0.0089332 -0.0211781 -4.83714 8.29048 13.1647 
1828 115 2 12.01 0.14 14.6265 9.51514 6.01748 14.6265 9.51514 -141.53 0 0 -3 0.00335642 -0.00247824 0.00577199 16.1298 -11.001 39.9811 
1827 115 2 12.01 0.14 14.828 10.4431 7.24345 14.828 10.4431 -140.304 0 0 -3 -0.006749 -0.0097846 -0.000388127 -4.358 19.0303 12.9007 
1831 115 3 1.008 0.03 15.8148 10.8885 7.22368 15.8148 10.8885 -140.323 0 0 -3 0.0152638 -0.0190591 0.00965219 3.53923 3.91873 -3.38619 
1323 83 3 1.008 0.03 12.1221 15.587 6.22731 61.3044 15.587 6.22731 1 0 0 -0.0146176 -0.0118048 0.00800992 -1.0233 -34.4286 10.1525 
4956 310 3 1.008 0.03 16.0577 15.292 5.39398 65.24 15.292 5.39398 1 0 0 0.00251969 0.0171831 0.0166367 -13.119 3.65751 -7.06083 
1325 83 3 1.008 0.03 13.4805 14.6948 6.7526 62.6628 14.6948 6.7526 1 0 0 0.014003 -0.00182541 -0.00971274 -12.8519 -14.7465 0.84788 
4957 310 3 1.008 0.03 14.4373 15.5815 4.65289 63.6197 15.5815 4.65289 1 0 0 -0.0118837 -0.0235112 0.00408147 -23.9605 17.2917 10.2342 
1830 115 2 12.01 0.11 14.0429 10.6626 4.09815 14.0429 10.6626 -143.449 0 0 -3 0.00071029 0.00722494 0.00594231 -36.2397 -6.15336 27.347 
1052 66 3 1.008 0.03 9.10424 11.5874 6.14957 -40.0781 -86.7773 153.697 -1 -2 3 -0.00731086 0.00560937 0.0041906 -3.05276 -4.08027 -7.42509 
4954 310 3 1.008 0.03 14.9747 15.3899 0.572404 64.157 15.3899 0.572404 1 0 0 -0.00451213 0.00423632 -0.026337 -9.68152 27.2777 -10.6551 
1826 115 1 16 -0.4 15.0787 10.1154 4.87404 15.0787 10.1154 -142.673 0 0 -3 0.00542281 0.00335315 0.0050754 14.1463 4.81086 -29.6666 
1839 115 3 1.008 0.03 14.3472 11.0035 3.1748 14.3472 11.0035 -144.372 0 0 -3 -0.00239846 0.0138561 0.0133976 17.4523 1.30143 -38.4302 
734 46 3 1.008 0.03 8.76495 11.5701 0.654148 8.76495 -135.977 0.654148 0 -3 0 0.00778727 -0.00508616 -0.00992086 11.7168 0.503277 -9.24954 
1051 66 3 1.008 0.03 10.4454 11.8302 7.23673 -38.737 -86.5345 154.784 -1 -2 3 0.0016661 -0.0157907 -0.0290495 -31.1987 0.00862287 4.08418 
7799 488 3 1.008 0.03 21.0234 14.2993 1.13347 70.2058 14.2993 1.13347 1 0 0 0.00876546 -0.0157138 -0.0106337 9.99294 8.23689 6.70721 
3562 223 3 1.008 0.03 21.4479 9.39493 0.87974 -76.9168 -88.9698 50.0621 -2 -2 1 0.0107042 -0.0279786 0.0226942 -13.7547 6.69701 -12.1205 
10111 635 6 16 -0.53 17.3287 9.2575 1.09713 115.693 58.4398 1.09713 2 1 0 -0.0022698 0.0051678 0.00486023 6.33428 -26.7501 22.8227 
10150 638 6 16 -0.53 20.5865 16.3706 5.42921 20.5865 16.3706 54.6116 0 0 1 0.00761794 -0.00150968 0.000309626 -6.21529 -4.9349 10.1916 
5055 316 3 1.008 0.03 23.2292 16.2693 6.35962 121.594 -32.913 -92.0051 2 -1 -2 0.0275442 -0.0141803 0.00833516 -0.76436 10.2712 0.116635 
173 11 3 1.008 0.03 24.5462 14.0621 3.52386 122.911 63.2445 101.889 2 1 2 0.00321669 -0.00706785 0.00755011 -2.28752 -2.10159 11.5903 
7807 488 3 1.008 0.03 16.857 12.476 3.65832 66.0393 12.476 3.65832 1 0 0 -0.00992491 -0.00198725 -0.0236434 -0.89197 7.10554 -2.405 
7808 488 3 1.008 0.03 17.6903 11.6623 2.33121 66.8727 11.6623 2.33121 1 0 0 0.0310047 0.00789146 -0.000344329 5.05312 15.566 19.3726 
7798 488 2 12.01 0.11 17.8341 12.378 3.19 67.0165 12.378 3.19 1 0 0 0.00326297 -0.00996169 0.00179792 -5.2663 -69.9348 24.4278 
171 11 3 1.008 0.03 23.131 14.6789 2.79239 121.496 63.8613 101.157 2 1 2 -0.00373177 -0.0147258 0.00647144 0.334928 13.346 -4.39142 
170 11 3 1.008 0.03 23.196 9.65667 4.29537 121.561 58.839 102.66 2 1 2 0.0096943 -0.00759002 0.0120673 -6.09253 15.4265 13.4401 
7155 448 2 12.01 0.14 19.5327 13.5543 7.03997 19.5327 -35.6281 56.2223 0 -1 1 -0.00148028 -0.00678784 -0.00373533 -30.7228 11.5062 -0.65871 
167 11 3 1.008 0.03 24.2752 11.9133 4.18801 122.64 61.0956 102.553 2 1 2 -0.0097595 0.00876644 0.000599286 -23.5774 -9.13414 7.35103 
7806 488 3 1.008 0.03 18.4391 11.86 4.00764 67.6214 11.86 4.00764 1 0 0 0.0073301 -0.0145806 0.00755613 -12.9399 16.1599 -26.9453 
175 11 3 1.008 0.03 19.6123 9.60352 4.06432 117.977 58.7859 102.429 2 1 2 0.000520171 -0.00282359 0.0139326 -35.8473 -1.89679 2.26289 
10454 665 9 24.305 2 17.6085 15.2196 2.30907 66.7909 15.2196 2.30907 1 0 0 0.00126727 0.00451891 -0.00361665 16.8448 32.1257 46.7254 
168 11 3 1.008 0.03 22.936 12.3063 5.31609 121.301 61.4887 103.681 2 1 2 -0.0265837 -0.00211022 -0.00157548 0.63617 -9.75573 -0.905328 
176 11 3 1.008 0.03 21.0108 9.10892 3.24302 119.375 58.2913 101.608 2 1 2 -0.0121797 -0.000529508 -0.000537577 -9.63422 -8.17805 -7.06544 
162 11 1 16 -0.4 21.2482 10.5657 4.58758 119.613 59.7481 102.952 2 1 2 -0.00119342 -0.00639745 -0.00373246 27.8497 -4.74513 -7.44132 
7794 488 1 16 -0.4 18.388 13.5688 2.77338 67.5704 13.5688 2.77338 1 0 0 0.000716132 -0.000204308 -0.00298406 9.49253 27.082 8.38145 
7801 488 3 1.008 0.03 19.5185 12.6423 1.45583 68.7008 12.6423 1.45583 1 0 0 0.02743 0.00360672 0.0133777 16.5546 16.9756 15.576 
161 11 1 16 -0.4 22.7528 12.8834 3.41663 121.117 62.0657 101.781 2 1 2 -0.00669948 -0.000790314 -0.00151694 0.772883 25.5178 -14.279 
163 11 2 12.01 0.14 23.1548 11.9277 4.3086 121.52 61.1101 102.673 2 1 2 -0.00161861 -0.00402615 0.000134128 51.5802 -10.1227 26.0193 
7800 488 3 1.008 0.03 20.7607 15.221 2.7144 69.9431 15.221 2.7144 1 0 0 0.0148719 0.00668273 0.00609784 1.01296 -13.7815 -10.2549 
7802 488 3 1.008 0.03 20.3431 12.7522 3.04943 69.5254 12.7522 3.04943 1 0 0 -0.00742838 4.71663e-05 -0.0119033 -11.1523 14.0423 -10.1986 
7795 488 2 12.01 0.14 20.3078 14.6172 1.89784 69.4902 14.6172 1.89784 1 0 0 0.00401208 0.00317425 0.00421975 27.1282 8.0253 -3.73849 