ITEM: TIMESTEP
3550000
ITEM: NUMBER OF ATOMS
10479
ITEM: BOX BOUNDS pp pp pp
4.0882558190751794e-01 4.9591174418091420e+01
4.0882558190751794e-01 4.9591174418091420e+01
4.0882558190751794e-01 4.9591174418091420e+01
ITEM: ATOMS id mol type mass q x y z xu yu zu ix iy iz vx vy vz fx fy fz 
7617 477 1 16 -0.4 3.18422 5.02771 3.65069 3.18422 5.02771 52.833 0 0 1 0.00394024 -0.00481792 -0.000738777 -15.3346 25.6181 6.05057 
7623 477 3 1.008 0.03 4.59485 5.00737 2.02092 4.59485 5.00737 51.2033 0 0 1 -0.00104886 0.00216402 -0.00832995 -31.1051 7.81636 12.4669 
7627 477 3 1.008 0.03 3.31229 3.16583 2.9407 3.31229 3.16583 52.123 0 0 1 -0.00248867 0.0018168 0.026809 -4.24851 -13.7705 -9.21009 
7628 477 3 1.008 0.03 4.51329 3.59712 4.13413 4.51329 3.59712 53.3165 0 0 1 0.010509 0.0189338 0.0247805 9.62268 -4.46583 4.56824 
7621 477 2 12.01 0.11 3.47779 3.6856 3.85959 3.47779 3.6856 53.0419 0 0 1 -0.000802585 -0.00719689 0.000251597 -8.74628 -0.175665 16.0107 
7629 477 3 1.008 0.03 2.82191 3.30609 4.68196 2.82191 3.30609 53.8643 0 0 1 -0.00326623 0.0172286 0.000168037 12.2643 4.08816 -17.7284 
7619 477 2 12.01 0.14 3.87162 5.67271 2.58898 3.87162 5.67271 51.7713 0 0 1 0.00481899 0.000446488 -0.00614667 49.9479 -2.94043 -38.8918 
7624 477 3 1.008 0.03 3.23591 6.18294 1.86808 3.23591 6.18294 51.0504 0 0 1 0.0284823 -0.000408384 -0.00536699 -13.2906 -12.2834 1.21854 
833 53 1 16 -0.4 5.6616 1.44919 2.26944 54.844 99.8139 -46.9129 1 2 -1 -0.000466028 0.00305782 -0.000571308 29.0724 15.634 22.1452 
7620 477 2 12.01 0.14 4.79285 6.82415 2.99895 4.79285 6.82415 52.1813 0 0 1 0.00430169 0.000525778 -0.00825851 9.43441 -7.50192 39.7987 
7618 477 1 16 -0.4 6.02906 6.23116 3.47091 6.02906 6.23116 52.6533 0 0 1 0.00254277 -0.00228354 -0.00670117 10.2628 32.0857 -12.874 
839 53 3 1.008 0.03 6.46135 1.56724 4.34613 55.6437 99.9319 -44.8362 1 2 -1 -0.0023266 0.0038574 0.0200732 -9.20534 -8.09769 -26.8912 
7626 477 3 1.008 0.03 4.3261 7.27987 3.88636 4.3261 7.27987 53.0687 0 0 1 0.00035443 0.0389775 0.0234834 3.17675 7.83756 -11.3184 
7625 477 3 1.008 0.03 4.93538 7.56454 2.18422 4.93538 7.56454 51.3666 0 0 1 0.00475022 -0.00430653 0.0203856 -0.682312 -10.0685 12.7323 
844 53 3 1.008 0.03 7.57827 2.22631 1.68094 56.7606 100.591 -47.5014 1 2 -1 -0.00102967 0.00852283 -0.00903634 7.63164 -12.0051 -4.24836 
2432 152 3 1.008 0.03 6.55429 5.39133 1.00967 -140.993 54.5737 99.3744 -3 1 2 0.00438518 0.000284865 -0.014707 -31.2793 -8.01605 11.6234 
837 53 2 12.01 0.11 6.5752 2.51595 1.93121 55.7575 100.881 -47.2511 1 2 -1 -0.00105558 0.000394222 -0.00366865 -1.97139 -28.4059 31.5486 
7622 477 2 12.01 0.11 7.07797 7.17906 3.87659 7.07797 7.17906 53.0589 0 0 1 0.00318808 -0.00560526 0.000277194 -70.5483 -27.8594 51.019 
7630 477 3 1.008 0.03 7.22896 8.07576 3.35303 7.22896 8.07576 52.5354 0 0 1 -0.0049054 -0.00253262 -0.00953411 3.91153 15.8864 -26.115 
7631 477 3 1.008 0.03 6.8485 7.5006 4.92995 6.8485 7.5006 54.1123 0 0 1 0.0112274 -0.0110414 0.0246291 2.63962 -5.18868 -23.0772 
7632 477 3 1.008 0.03 7.92118 6.58447 3.98613 7.92118 6.58447 53.1685 0 0 1 -0.00428524 -0.0238251 -0.0252591 36.6804 -10.3399 -2.91817 
843 53 3 1.008 0.03 6.71122 3.17867 2.77326 55.8936 101.543 -46.4091 1 2 -1 -0.0184378 -0.0170419 0.0165134 -4.82809 11.3678 2.1257 
2422 152 2 12.01 0.11 7.45924 5.57153 0.536889 -140.088 54.7539 98.9016 -3 1 2 0.00500221 -0.00238312 -0.00120337 27.0584 42.2849 -41.4845 
845 53 3 1.008 0.03 6.23879 3.02532 1.1168 55.4211 101.39 -48.0655 1 2 -1 -0.00936469 0.00793858 0.0017777 -19.9161 26.3374 -35.8975 
2431 152 3 1.008 0.03 8.2259 5.32711 1.20495 -139.321 54.5095 99.5696 -3 1 2 0.0116458 -0.019032 0.00815452 17.5192 -11.8656 20.5611 
834 53 1 16 -0.4 8.52045 0.587343 3.40479 57.7028 98.952 -45.7776 1 2 -1 0.0025582 -0.00341828 -0.000296465 33.9069 34.0772 15.4921 
835 53 2 12.01 0.14 6.17322 0.878269 3.49591 55.3556 99.243 -45.6864 1 2 -1 0.0051246 -0.00788088 -0.00297626 -2.06876 6.14075 13.89 
8827 552 3 1.008 0.03 2.74205 1.50211 5.90201 2.74205 99.8668 104.267 0 2 2 -0.00458555 0.012967 -0.00486729 0.17747 1.95873 5.95044 
7515 470 3 1.008 0.03 2.16794 1.05964 1.45045 100.533 -48.1227 -47.7319 2 -1 -1 0.00179098 0.00340489 0.0167011 -6.76607 12.6017 -20.5736 
8828 552 3 1.008 0.03 1.08279 1.83745 6.24449 1.08279 100.202 104.609 0 2 2 -0.0134051 0.00442575 -0.0152743 -12.5365 18.187 2.66772 
10126 636 6 16 -0.53 1.43663 8.57356 2.28984 1.43663 8.57356 51.4722 0 0 1 -0.00555425 -0.00129144 -0.00184147 -8.83885 17.5784 -10.7864 
7893 494 2 12.01 0.11 3.24541 8.29757 6.92217 -45.9369 106.662 56.1045 -1 2 1 -0.00479752 0.00049794 -0.0027979 -14.4452 -8.24185 38.8845 
7509 470 2 12.01 0.11 1.47738 0.581064 0.72692 99.8421 -48.6013 -48.4554 2 -1 -1 0.00567119 0.00635016 0.00679983 -1.42408 -7.55671 3.99725 
8821 552 2 12.01 0.11 1.91748 1.28115 6.58186 1.91748 99.6458 104.947 0 2 2 0.000684249 -0.00222627 0.000191759 26.8631 -13.7018 7.917 
10125 636 5 32.06 1.02 0.670612 8.36858 1.0784 0.670612 8.36858 50.2607 0 0 1 0.00126046 0.00270844 0.000466723 46.6561 -44.9416 -20.0643 
8671 542 3 1.008 0.03 5.2089 4.83028 6.80949 5.2089 54.0126 55.9918 0 1 1 -0.00361329 -0.00741378 0.00166952 -2.20718 19.2155 -8.00575 
8666 542 3 1.008 0.03 4.82461 2.18342 6.35088 4.82461 51.3658 55.5332 0 1 1 0.001012 0.0050702 0.00756611 23.0619 -11.5081 15.9637 
8665 542 3 1.008 0.03 6.41698 2.89835 6.50591 6.41698 52.0807 55.6883 0 1 1 -0.0135954 0.0242015 0.00346084 4.6878 3.1388 2.51017 
8672 542 3 1.008 0.03 3.57946 4.21385 6.75227 3.57946 53.3962 55.9346 0 1 1 0.0132067 0.00241656 -0.0233338 -26.8452 -3.74546 -15.5053 
7900 494 3 1.008 0.03 3.26043 7.22844 6.89561 -45.9219 105.593 56.078 -1 2 1 0.0107734 -0.000486452 0.00570103 14.7369 -13.7148 -6.85393 
8660 542 2 12.01 0.14 5.63931 2.41538 7.09112 5.63931 51.5977 56.2735 0 1 1 -0.000313421 -0.00552063 0.00210647 -50.1289 17.5547 -4.70895 
8662 542 2 12.01 0.11 4.37298 4.46844 7.38211 4.37298 53.6508 56.5645 0 1 1 0.00817432 -0.00367529 -0.00623747 43.1219 -25.0901 25.9896 
7271 455 3 1.008 0.03 11.5688 3.05782 1.77611 60.7512 3.05782 50.9585 1 0 1 -0.0158825 -0.00139684 -0.00372139 0.324058 -4.17721 -11.6402 
1502 94 3 1.008 0.03 12.2898 1.07846 5.56077 110.655 99.4432 54.7431 2 2 1 0.0190844 -0.00386773 0.0227163 -21.4989 -9.11834 8.16394 
7277 455 3 1.008 0.03 10.1539 3.22978 5.56865 59.3362 3.22978 54.751 1 0 1 0.0119473 0.0187243 0.0226514 9.10761 9.28312 -20.1941 
7267 455 2 12.01 0.14 10.8036 3.64676 2.25783 59.9859 3.64676 51.4402 1 0 1 -0.000915737 -3.51559e-05 0.00618304 10.9361 -0.857412 5.17615 
7275 455 3 1.008 0.03 9.8762 4.74699 4.65232 59.0586 4.74699 53.8347 1 0 1 -0.0349983 0.0194212 0.00279114 15.101 5.08603 2.78871 
7269 455 2 12.01 0.11 10.0372 3.68172 4.54992 59.2196 3.68172 53.7323 1 0 1 -0.00239669 0.00365953 0.0113021 -44.7927 -9.48548 27.4531 
7273 455 3 1.008 0.03 12.1941 5.27119 2.62448 61.3765 5.27119 51.8068 1 0 1 -0.0260038 -0.0133729 0.0142924 -15.7428 -5.74675 -13.6413 
7276 455 3 1.008 0.03 9.00615 3.39259 4.31652 58.1885 3.39259 53.4989 1 0 1 -0.0147292 0.0109289 -0.00636642 7.55633 -6.66698 -8.42636 
7265 455 1 16 -0.4 10.9504 3.21793 3.58253 60.1327 3.21793 52.7649 1 0 1 -0.00197658 -0.0044585 0.00204563 12.0763 -10.2471 15.173 
7268 455 2 12.01 0.14 11.2088 5.07997 2.1247 60.3911 5.07997 51.307 1 0 1 -0.00167423 0.00802405 -0.0132891 10.8115 5.2024 33.5194 
8527 533 3 1.008 0.03 15.365 4.17155 4.92546 64.5473 53.3539 4.92546 1 1 0 0.00501498 -0.0156796 -0.0238629 -7.44241 16.8872 -21.4649 
8516 533 2 12.01 0.14 15.2151 5.16446 1.72949 64.3974 54.3468 1.72949 1 1 0 -0.00658562 0.00803522 -0.00153881 -20.323 -2.30097 21.0165 
8521 533 3 1.008 0.03 14.6999 6.10354 2.08157 63.8822 55.2859 2.08157 1 1 0 -0.0171788 -0.00286298 0.00274879 12.1205 -14.8805 -21.1465 
4189 262 3 1.008 0.03 14.15 1.8286 3.21758 14.15 51.0109 52.3999 0 1 1 0.0437914 -0.0200122 0.0243762 -38.0532 9.99269 8.13637 
8528 533 3 1.008 0.03 14.8284 5.84824 4.42876 64.0107 55.0306 4.42876 1 1 0 -0.0171048 -0.00693899 -0.0242385 5.88072 -18.128 -12.5553 
8514 533 1 16 -0.4 15.7699 4.61391 2.90801 64.9523 53.7963 2.90801 1 1 0 -0.00420176 0.000217137 0.000293513 13.6919 3.22142 6.31885 
8518 533 2 12.01 0.11 14.9683 4.79497 4.06863 64.1507 53.9773 4.06863 1 1 0 -1.25951e-05 -0.00453691 0.00434214 -33.4723 -30.3151 12.2729 
8526 533 3 1.008 0.03 13.9589 4.32805 3.7919 63.1413 53.5104 3.7919 1 1 0 -0.023463 0.00374431 -0.0100314 29.5995 19.2704 15.9123 
848 53 3 1.008 0.03 10.465 0.888335 2.93456 59.6474 99.253 -46.2478 1 2 -1 0.00271638 0.00157422 0.00277681 3.5859 -2.59866e-05 -1.60717 
7266 455 1 16 -0.4 10.2159 5.91438 2.69129 59.3982 5.91438 51.8736 1 0 1 0.00154665 0.00219718 0.00507065 -1.86374 6.37886 -11.6244 
4452 279 2 12.01 0.14 16.2968 1.07559 7.19147 16.2968 50.2579 105.556 0 1 2 -0.00365807 0.01513 0.00683685 -37.3043 56.4277 -6.96284 
5174 324 2 12.01 0.11 12.4114 6.40901 6.36812 12.4114 6.40901 55.5505 0 0 1 0.00264975 -0.0073109 0.00967771 -33.5111 6.07741 16.5122 
5184 324 3 1.008 0.03 12.8983 5.88413 5.56394 12.8983 5.88413 54.7463 0 0 1 -0.01754 -0.00252734 -0.0144513 11.0796 4.33213 -4.92531 
5183 324 3 1.008 0.03 12.6284 7.49911 6.47698 12.6284 7.49911 55.6593 0 0 1 -0.00681572 -0.0117667 0.0239564 -0.578357 -17.9046 -14.8124 
7272 455 3 1.008 0.03 9.87168 3.4598 1.76054 59.054 3.4598 50.9429 1 0 1 0.00830743 0.00729711 0.00457397 -13.662 -7.16486 1.79943 
4450 279 1 16 -0.4 16.3668 2.56601 7.17656 16.3668 51.7484 105.541 0 1 2 -0.00224389 -0.000101216 0.00356789 43.4302 -56.1996 -14.829 
4181 262 2 12.01 0.11 15.0158 1.48334 2.77042 15.0158 50.6657 51.9528 0 1 1 0.000224479 0.00199631 0.010137 21.0443 -80.9977 -25.9236 
4187 262 3 1.008 0.03 15.7246 1.42336 3.56619 15.7246 50.6057 52.7485 0 1 1 -0.00815941 0.0032174 -0.0270892 10.547 -1.98988 8.90666 
9039 565 3 1.008 0.03 13.7394 8.29971 3.17724 13.7394 -139.247 101.542 0 -3 2 -0.0276473 0.0190317 0.0204948 11.7666 20.7415 -0.299234 
4457 279 3 1.008 0.03 15.3782 0.813269 6.5811 15.3782 49.9956 104.946 0 1 2 0.036221 -0.00520341 -0.0120033 23.4776 0.765986 17.3736 
4183 262 3 1.008 0.03 12.8819 0.623421 1.27828 12.8819 49.8058 50.4606 0 1 1 0.0102535 0.0277361 -0.00563897 27.5752 2.66884 21.3562 
7274 455 3 1.008 0.03 11.2542 5.28523 1.09146 60.4366 5.28523 50.2738 1 0 1 -0.0258114 -0.0313058 0.00884348 8.30711 4.98244 -25.1542 
7279 455 3 1.008 0.03 9.89986 8.0129 2.75648 59.0822 8.0129 51.9388 1 0 1 -0.0204835 0.010739 0.010012 0.235853 -5.30609 -3.24484 
7270 455 2 12.01 0.11 10.6558 7.24393 2.56566 59.8381 7.24393 51.748 1 0 1 0.00591143 0.0139849 5.81361e-05 19.4852 -0.7421 -1.76133 
4188 262 3 1.008 0.03 15.4192 2.13328 2.08285 15.4192 51.3156 51.2652 0 1 1 0.0232593 -0.00191586 0.0124903 8.41239 35.3654 -23.9951 
5182 324 3 1.008 0.03 11.3428 6.25954 6.14688 11.3428 6.25954 55.3292 0 0 1 -0.00807729 0.02604 0.0179889 5.18407 8.29924 3.24528 
1494 94 2 12.01 0.11 11.7583 0.619916 6.43387 110.123 98.9846 55.6162 2 2 1 -0.000965573 0.00380556 0.00122409 30.6213 42.723 11.0524 
7278 455 3 1.008 0.03 11.1683 7.37142 1.5896 60.3506 7.37142 50.7719 1 0 1 -0.0114141 -0.0016984 -0.0243131 -12.8474 12.5458 8.26128 
1504 94 3 1.008 0.03 10.8729 1.1718 6.77282 109.238 99.5365 55.9552 2 2 1 -0.0228166 0.00826164 0.00528083 2.78382 4.33369 -12.4255 
4464 279 3 1.008 0.03 14.423 2.98635 7.42313 14.423 52.1687 105.788 0 1 2 0.0349612 -0.00634555 0.0106501 -13.5063 8.62081 -19.7895 
8522 533 3 1.008 0.03 14.4729 4.45974 1.31915 63.6553 53.6421 1.31915 1 1 0 -0.00934703 -0.00661958 0.0130838 1.95856 9.63577 6.20458 
7280 455 3 1.008 0.03 11.4455 7.32449 3.31615 60.6279 7.32449 52.4985 1 0 1 0.0221864 0.00886818 -0.0135245 -2.86003 9.55223 0.699359 
8515 533 2 12.01 0.14 16.3159 5.37449 0.702471 65.4982 54.5568 0.702471 1 1 0 -0.00535536 0.00294286 -0.00764421 3.4612 65.3586 -3.08292 
4451 279 2 12.01 0.14 17.5477 0.470961 6.58338 17.5477 49.6533 104.948 0 1 2 0.0126302 -0.00142957 -0.0017137 -28.9479 -35.2466 36.679 
8519 533 3 1.008 0.03 17.2762 5.65372 1.08929 66.4586 54.8361 1.08929 1 1 0 0.015501 0.00431866 -0.00596457 8.95576 -2.45653 14.9513 
5659 354 3 1.008 0.03 23.6468 6.77431 3.448 -25.5355 55.9567 3.448 -1 1 0 -0.00746955 0.00610551 0.0258961 6.28601 8.52324 11.221 
2021 127 2 12.01 0.11 22.7262 3.61753 7.00084 -26.4561 52.7999 7.00084 -1 1 0 0.00550613 0.0129993 -0.00312556 -15.6315 57.4319 -33.4646 
2018 127 1 16 -0.4 19.1505 5.5731 6.58423 -30.0319 54.7554 6.58423 -1 1 0 0.00319715 0.00458141 -0.000599608 4.19476 7.92628 -4.07647 
5655 354 3 1.008 0.03 22.2696 5.22564 2.35687 -26.9128 54.408 2.35687 -1 1 0 0.0180709 -0.0305636 0.0129406 -15.7204 -12.1708 7.14484 
5664 354 3 1.008 0.03 18.9406 2.77453 3.88897 -30.2417 51.9569 3.88897 -1 1 0 0.00212468 -0.00507724 0.0440094 -7.18949 -18.9013 -2.97807 
5652 354 2 12.01 0.14 21.3112 3.58458 3.66136 -27.8712 52.7669 3.66136 -1 1 0 -0.00285298 0.00593267 0.00471778 -22.7395 11.5487 17.7819 
5650 354 1 16 -0.4 20.2056 4.39261 4.13002 -28.9768 53.575 4.13002 -1 1 0 -0.00145599 -0.00281921 -0.000717022 -10.5599 -15.0356 9.20433 
10458 669 9 24.305 2 20.914 5.76724 5.67057 -28.2684 54.9496 5.67057 -1 1 0 0.00574528 -0.000578379 -0.00194585 -8.10766 -19.0583 -45.6279 
10322 649 6 16 -0.53 20.485 7.44718 4.51339 20.485 7.44718 4.51339 0 0 0 -0.00371504 0.00138023 0.00143897 4.33695 36.7097 -24.6068 
5649 354 1 16 -0.4 22.4422 5.51132 4.42061 -26.7401 54.6937 4.42061 -1 1 0 0.00774268 0.000444819 -0.0080792 26.3967 9.97159 19.6273 
5651 354 2 12.01 0.14 22.3208 4.64236 3.2951 -26.8615 53.8247 3.2951 -1 1 0 0.00483511 0.00251945 -0.00174942 10.6694 10.7923 -3.39341 
5657 354 3 1.008 0.03 21.0018 2.9222 2.86444 -28.1805 52.1046 2.86444 -1 1 0 -0.000755317 -0.0177411 0.00408042 7.41722 -1.16366 -12.4612 
5654 354 2 12.01 0.11 18.9534 3.81264 3.66698 -30.229 52.995 3.66698 -1 1 0 -0.000413973 -0.00496578 -0.000978734 17.9168 52.9573 5.87529 
5653 354 2 12.01 0.11 23.7394 6.21293 4.38895 -25.4429 55.3953 4.38895 -1 1 0 -0.00101637 -0.00183394 -0.00829304 -46.9135 -20.6517 -56.0602 
5658 354 3 1.008 0.03 21.724 2.93112 4.46547 -27.4584 52.1135 4.46547 -1 1 0 -0.0081319 -0.00375939 0.000940857 -9.60747 8.0448 -13.1064 
5656 354 3 1.008 0.03 23.1832 4.05435 3.18542 -25.9992 53.2367 3.18542 -1 1 0 0.0245096 0.0131898 -0.00711413 23.871 -5.16793 -5.18459 
5662 354 3 1.008 0.03 18.0889 4.31914 4.12797 -31.0935 53.5015 4.12797 -1 1 0 -0.0171677 0.0149985 -0.0102906 7.89277 -7.67985 -1.94379 
5663 354 3 1.008 0.03 18.9132 4.08175 2.60644 -30.2691 53.2641 2.60644 -1 1 0 -0.0237098 -0.0380125 0.00120409 -5.10655 -14.0715 -1.04568 
10320 649 5 32.06 1.02 20.6021 8.38246 3.3472 20.6021 8.38246 3.3472 0 0 0 -0.00208205 0.000656105 0.000743217 0.148387 -84.7874 -3.78339 
10312 649 4 14.01 -0.66 20.6338 7.47445 2.04168 20.6338 7.47445 2.04168 0 0 0 0.00822407 0.00270885 -0.00852806 -3.6725 27.3059 15.1794 
10291 647 6 16 -0.53 21.5977 6.74518 7.16881 21.5977 55.9275 7.16881 0 1 0 0.00104668 0.00116263 0.00347792 5.91319 35.1747 44.7195 
2032 127 3 1.008 0.03 17.1291 5.53564 5.79372 -32.0532 54.718 5.79372 -1 1 0 0.0111406 0.0140684 0.0167766 32.8681 20.5636 15.484 
2022 127 2 12.01 0.11 17.8555 6.1941 6.39233 -31.3269 55.3765 6.39233 -1 1 0 -0.00391264 -1.98163e-05 -0.00217287 -38.9594 -14.1944 -23.1755 
10326 649 8 19 -0.16 18.0704 8.24934 2.99172 18.0704 8.24934 2.99172 0 0 0 0.00375035 0.00197384 -0.00128022 0.744042 -1.66464 3.01482 
2017 127 1 16 -0.4 21.4419 4.11392 6.53122 -27.7405 53.2963 6.53122 -1 1 0 -0.00406677 -0.00310471 -0.00176994 6.44604 2.17021 32.3957 
2027 127 3 1.008 0.03 23.5031 4.01939 6.32478 -25.6792 53.2017 6.32478 -1 1 0 -0.0279939 -0.0272123 -0.0218466 -8.10787 -17.7465 1.79536 
5660 354 3 1.008 0.03 23.8921 6.87574 5.17885 -25.2903 56.0581 5.17885 -1 1 0 -0.0162223 -0.0163379 -0.0199052 4.59842 18.7826 23.6161 
2025 127 3 1.008 0.03 18.5225 3.6345 6.35423 -30.6598 52.8168 6.35423 -1 1 0 -0.00156944 -0.0306557 -0.00938803 20.1426 -3.97092 5.45361 
2031 127 3 1.008 0.03 18.0871 7.07807 5.76619 -31.0952 56.2604 5.76619 -1 1 0 -0.015682 0.00175647 -0.0184617 -12.0665 -5.4517 9.81445 
4456 279 3 1.008 0.03 18.4718 0.752979 7.07246 18.4718 49.9353 105.437 0 1 2 -0.00911003 -0.0132008 -0.0138734 3.74851 0.961793 5.26594 
2020 127 2 12.01 0.14 19.0803 4.24914 7.08575 -30.1021 53.4315 7.08575 -1 1 0 0.00356441 -0.00181492 -0.00658989 -9.66269 -10.5648 -5.16598 
4392 275 3 1.008 0.03 19.9071 1.467 0.621162 118.272 1.467 -48.5612 2 0 -1 0.00952028 0.00384279 -0.0295384 2.53492 11.261 -10.5764 
2029 127 3 1.008 0.03 22.6286 2.57959 7.01822 -26.5538 51.7619 7.01822 -1 1 0 -0.0100118 0.00620048 -0.029136 14.3414 -34.9442 2.21658 
5661 354 3 1.008 0.03 24.6137 5.62101 4.17883 -24.5686 54.8034 4.17883 -1 1 0 0.0186774 0.00976271 -0.0073652 5.68727 -11.3729 8.23468 
4449 279 1 16 -0.4 17.4677 0.925469 5.31178 17.4677 50.1078 103.676 0 1 2 -0.00313623 2.33619e-05 0.0030343 5.14316 -3.36712 -35.0932 
10313 649 5 32.06 1.02 21.4501 7.88818 0.772167 21.4501 7.88818 0.772167 0 0 0 -0.00219413 0.00186192 0.00407508 12.5883 6.60867 11.1861 
10315 649 6 16 -0.53 22.7883 7.33442 0.812267 22.7883 7.33442 0.812267 0 0 0 0.00294108 -0.00529939 0.000123771 -8.19635 -1.56956 -5.51075 
4459 279 3 1.008 0.03 19.3824 0.595242 4.60523 19.3824 49.7776 102.97 0 1 2 -0.00566022 0.017245 -0.00433122 -12.4339 -5.55937 -0.824455 
2030 127 3 1.008 0.03 17.1675 6.48529 7.24258 -32.0148 55.6676 7.24258 -1 1 0 -0.0174364 0.00774499 0.00576069 33.1664 -5.40402 -8.07698 
5854 366 3 1.008 0.03 5.03133 16.7328 6.40733 5.03133 16.7328 -42.775 0 0 -1 0.0208812 -0.00670101 0.0147299 -11.416 -6.25523 -0.97692 
2427 152 3 1.008 0.03 8.16446 9.30254 1.52632 -139.383 58.4849 99.891 -3 1 2 0.0294013 0.0201927 0.0417631 7.00852 11.233 -13.1868 
6262 392 2 12.01 0.11 2.42305 15.7093 2.18524 2.42305 15.7093 100.55 0 0 2 0.00139679 -0.000112947 -0.00137944 -50.4895 30.7451 22.6325 
6270 392 3 1.008 0.03 3.09554 15.4411 1.45658 3.09554 15.4411 99.8213 0 0 2 -0.0138931 0.00972622 -0.0197389 18.7018 -5.71282 -41.0068 
6271 392 3 1.008 0.03 3.04294 15.993 2.95407 3.04294 15.993 101.319 0 0 2 0.0195792 0.00390231 0.0108632 28.8173 8.36888 30.2681 
3822 239 3 1.008 0.03 3.09383 11.9428 5.88461 3.09383 61.1251 55.067 0 1 1 0.0255842 0.0127896 0.0267385 -16.2304 -23.5818 10.389 
3818 239 3 1.008 0.03 5.03782 14.4567 4.01305 5.03782 63.639 53.1954 0 1 1 -0.00612173 0.0007559 0.0192722 -6.20917 -2.5659 -6.67923 
3811 239 2 12.01 0.14 5.48387 12.9982 2.49724 5.48387 62.1806 51.6796 0 1 1 -0.000884722 -0.000837185 0.00565111 -35.081 -24.7557 -61.4733 
3809 239 1 16 -0.4 6.05214 11.6869 2.42173 6.05214 60.8692 51.6041 0 1 1 0.00161095 -0.0060574 -0.00116641 38.622 35.7122 -15.2528 
3816 239 3 1.008 0.03 4.59784 13.018 1.78122 4.59784 62.2004 50.9636 0 1 1 0.0112676 0.00323362 0.0281239 19.3972 2.29761 28.2338 
3815 239 3 1.008 0.03 6.14227 13.7397 2.07978 6.14227 62.9221 51.2621 0 1 1 -0.0203436 -0.00664963 0.0166894 12.2364 1.30378 -3.4729 
3812 239 2 12.01 0.14 5.21432 13.3849 3.87978 5.21432 62.5673 53.0621 0 1 1 0.00396061 -0.00301013 0.00208798 8.49122 9.43966 62.6084 
3817 239 3 1.008 0.03 6.14194 13.2189 4.47977 6.14194 62.4012 53.6621 0 1 1 0.0108789 -0.014935 0.0368174 -16.9953 -3.30604 -7.53423 
8655 541 3 1.008 0.03 8.22378 14.9211 3.14086 -40.9586 -34.2613 -46.0415 -1 -1 -1 0.0028334 -0.0436307 -0.0225017 10.5965 -6.75511 24.6104 
3810 239 1 16 -0.4 4.11444 12.616 4.35886 4.11444 61.7983 53.5412 0 1 1 0.00348906 -0.00751318 0.00402169 0.741409 5.11586 -20.2981 
3814 239 2 12.01 0.11 3.79017 12.7044 5.71064 3.79017 61.8868 54.893 0 1 1 0.00499556 -0.00499187 -0.000972656 43.8745 43.7108 67.8423 
3824 239 3 1.008 0.03 3.29584 13.6374 6.09645 3.29584 62.8197 55.2788 0 1 1 -0.0149905 -0.000429002 0.00878636 7.69713 -13.7703 -24.137 
3823 239 3 1.008 0.03 4.68101 12.631 6.46055 4.68101 61.8134 55.6429 0 1 1 0.00355591 0.0151442 -0.00686029 -34.3103 -7.64377 -40.3194 
3813 239 2 12.01 0.11 5.28246 10.5678 2.60121 5.28246 59.7502 51.7836 0 1 1 0.00669841 -0.0043541 4.1578e-05 -49.473 -65.6652 10.4451 
3819 239 3 1.008 0.03 5.05269 10.4204 3.67819 5.05269 59.6027 52.8605 0 1 1 0.0187627 -0.0133065 0.0194223 11.3213 0.691707 -12.4128 
3821 239 3 1.008 0.03 5.80716 9.63079 2.21374 5.80716 58.8131 51.3961 0 1 1 -0.0255451 -0.0135644 0.0216192 -12.6028 32.4749 14.7115 
3820 239 3 1.008 0.03 4.24366 10.5221 2.1617 4.24366 59.7044 51.3441 0 1 1 0.00224808 -2.04784e-05 0.0374469 27.9027 13.8823 -0.300608 
6322 396 1 16 -0.4 8.20724 10.8306 5.21642 -139.34 158.378 -43.9659 -3 3 -1 -0.00488557 -0.000789456 -0.00450186 -23.2559 9.33664 8.95133 
7899 494 3 1.008 0.03 3.24959 8.69894 5.92276 -45.9328 107.064 55.1051 -1 2 1 -0.00473283 0.0323926 0.00866211 -4.3996 4.37962 -7.99619 
6335 396 3 1.008 0.03 6.84181 11.0083 6.86565 -140.705 158.555 -42.3167 -3 3 -1 0.00413636 0.0185704 0.0284593 19.8786 -4.91242 -14.5878 
4762 298 3 1.008 0.03 8.57099 14.456 0.651821 57.7533 14.456 0.651821 1 0 0 0.0191187 -0.0297554 0.00424997 2.11417 -5.71414 4.00291 
8654 541 3 1.008 0.03 8.18449 14.9685 4.97114 -40.9979 -34.2139 -44.2112 -1 -1 -1 0.00326435 -0.00554659 -0.0205779 -4.28329 -0.891993 -2.69978 
6334 396 3 1.008 0.03 8.55855 10.7826 7.23865 -138.988 158.33 -41.9437 -3 3 -1 -0.00729965 0.0246538 0.00756538 -12.0164 -17.1208 -7.04438 
8681 543 3 1.008 0.03 0.87962 16.164 5.51953 0.87962 16.164 153.067 0 0 3 0.00971462 0.0346672 0.0037248 -5.14626 -0.681243 -4.97745 
5842 366 1 16 -0.4 6.97143 16.5133 6.92133 6.97143 16.5133 -42.261 0 0 -1 0.00317712 0.00464945 0.000613288 -36.9513 -3.70638 -13.8686 
2421 152 2 12.01 0.11 8.25002 10.0927 0.74365 -139.297 59.275 99.1083 -3 1 2 -0.00148398 -0.00830959 0.00642054 -29.7822 -24.6039 8.28483 
6336 396 3 1.008 0.03 7.45357 9.44029 6.56689 -140.093 156.987 -42.6155 -3 3 -1 -0.0186679 -0.0207644 -0.00520806 7.3104 -11.4812 0.842335 
6272 392 3 1.008 0.03 1.95417 14.8392 2.62001 1.95417 14.8392 100.985 0 0 2 0.00618031 0.0122124 -0.0085314 -13.0539 -4.29621 -4.92566 
6326 396 2 12.01 0.11 7.76451 10.4662 6.52122 -139.783 158.013 -42.6611 -3 3 -1 0.00286017 -0.00605174 0.00420123 -1.66638 31.82 14.9358 
2429 152 3 1.008 0.03 8.34682 11.0171 1.24787 -139.2 60.1995 99.6126 -3 1 2 0.0322419 -0.0115938 0.0083564 -0.0837555 19.9559 9.69695 
4763 298 3 1.008 0.03 13.0618 14.3233 1.68389 62.2441 14.3233 1.68389 1 0 0 0.0239513 -0.000101272 -0.00103086 9.71774 -8.28804 -0.264659 
4765 298 3 1.008 0.03 13.7492 13.1366 0.586157 62.9315 13.1366 0.586157 1 0 0 -0.00225236 -0.0116342 0.0175236 16.59 3.75878 -16.7512 
7167 448 3 1.008 0.03 15.2108 16.4706 7.2153 15.2108 -81.8941 56.3976 0 -2 1 -0.0218377 0.0109487 -0.00481412 -11.2808 2.51592 12.1969 
4760 298 3 1.008 0.03 10.9652 14.9115 1.71465 60.1476 14.9115 1.71465 1 0 0 -0.0195802 -0.00803129 -0.0226577 -8.54746 -31.0299 -11.4298 
6329 396 3 1.008 0.03 9.10633 10.3756 3.56422 -138.441 157.923 -45.6181 -3 3 -1 0.00250031 0.0109104 0.0026333 15.757 -17.4259 20.7329 
4764 298 3 1.008 0.03 13.1999 12.541 2.01135 62.3823 12.541 2.01135 1 0 0 0.000188925 0.013468 -0.0168062 -14.8118 -0.368287 7.96367 
8646 541 2 12.01 0.11 8.77535 14.6876 4.09907 -40.407 -34.4948 -45.0833 -1 -1 -1 -0.00187681 0.000501699 0.00262814 10.3133 -19.598 -4.90968 
6321 396 1 16 -0.4 11.2405 9.75882 6.28399 -136.307 157.306 -42.8984 -3 3 -1 -0.00237176 -0.0037232 0.000526285 -24.6532 -14.7656 -0.294401 
8656 541 3 1.008 0.03 9.00015 13.5853 4.18543 -40.1822 -35.5971 -44.9969 -1 -1 -1 -0.0158652 0.0239412 0.00890681 -8.93751 23.4046 -7.12778 
4759 298 3 1.008 0.03 10.2752 13.1913 1.95936 59.4575 13.1913 1.95936 1 0 0 0.00533164 -0.0108696 -0.00841001 5.79392 8.39942 10.2606 
9030 565 2 12.01 0.11 14.2931 9.19178 2.77957 14.2931 -138.355 101.144 0 -3 2 -0.00229917 -0.00291093 0.00179617 -14.1997 -8.11212 -0.0669571 
9038 565 3 1.008 0.03 13.5756 9.94724 2.49818 13.5756 -137.6 100.863 0 -3 2 0.0128786 0.00424911 0.0149154 -10.0827 -2.62745 -11.2017 
6324 396 2 12.01 0.14 9.26137 10.107 4.64852 -138.286 157.654 -44.5338 -3 3 -1 -0.00453418 -0.00183741 0.00486132 39.8379 9.91885 11.7166 
8642 541 1 16 -0.4 9.99528 15.4226 4.15162 -39.1871 -33.7597 -45.0307 -1 -1 -1 0.000577301 0.00218963 0.000430802 11.5476 -0.207467 -10.3824 
8644 541 2 12.01 0.14 11.0631 14.8882 4.96269 -38.1193 -34.2941 -44.2197 -1 -1 -1 0.00216081 -0.000884044 -0.00255577 -30.4774 -10.4434 -12.6352 
8649 541 3 1.008 0.03 11.4227 13.8868 4.70992 -37.7597 -35.2956 -44.4724 -1 -1 -1 -0.0113657 0.00423533 -0.00488442 -8.97244 0.407102 -7.1702 
8641 541 1 16 -0.4 12.8794 15.633 3.70934 -36.303 -33.5494 -45.473 -1 -1 -1 -0.00247822 -0.00169264 -0.003408 18.1008 5.32788 4.09124 
7163 448 3 1.008 0.03 13.4202 12.0417 4.26602 13.4202 -86.323 53.4484 0 -2 1 -0.0117035 0.0197438 -0.0286372 2.5075 -7.33765 3.3254 
7165 448 3 1.008 0.03 15.0907 11.6209 4.8262 15.0907 -86.7438 54.0086 0 -2 1 -0.0134468 0.00490737 -0.00155131 3.54627 -2.47823 -11.2282 
7157 448 2 12.01 0.11 14.3404 12.3994 4.72946 14.3404 -85.9653 53.9118 0 -2 1 0.00229711 -0.00874614 -0.000463431 4.53574 21.0501 -33.2787 
7164 448 3 1.008 0.03 14.6464 13.2739 4.09536 14.6464 -85.0908 53.2777 0 -2 1 0.0174557 0.0248304 0.0242599 3.19518 -20.1017 11.6948 
7153 448 1 16 -0.4 14.0716 12.8297 5.99414 14.0716 -85.535 55.1765 0 -2 1 0.00532238 0.00304766 -0.000384606 -26.1569 0.437759 29.3571 
7160 448 3 1.008 0.03 15.4548 14.3161 6.17802 15.4548 -84.0486 55.3604 0 -2 1 -0.00445137 -0.0116489 -0.0429367 9.62887 -7.59677 -13.352 
7159 448 3 1.008 0.03 16.116 12.6428 6.76092 16.116 -85.7219 55.9433 0 -2 1 9.17191e-06 -0.0030361 -0.0059161 -62.0741 45.6202 -11.3364 
7155 448 2 12.01 0.14 15.1702 13.3816 6.65603 15.1702 -84.9831 55.8384 0 -2 1 0.00489754 0.003492 0.00133585 67.5962 -11.0356 16.7754 
6328 396 3 1.008 0.03 11.4271 10.4701 4.37121 -136.12 158.017 -44.8111 -3 3 -1 0.00312925 0.00323671 -0.00786155 -28.6444 8.02113 35.3364 
6323 396 2 12.01 0.14 10.6697 10.5391 5.24412 -136.877 158.086 -43.9382 -3 3 -1 -0.00584291 0.000733743 -0.00935689 16.1145 -21.5523 -74.0793 
9040 565 3 1.008 0.03 14.815 9.76235 3.5353 14.815 -137.785 101.9 0 -3 2 -0.000901663 -0.0524199 0.0100867 12.8017 -11.809 7.02317 
4755 298 2 12.01 0.14 10.6755 13.913 1.24466 59.8578 13.913 1.24466 1 0 0 -0.00934554 0.00974033 0.00943162 -10.3019 5.70968 -31.8314 
8653 541 3 1.008 0.03 14.5186 16.2331 2.76474 -34.6637 -32.9493 -46.4176 -1 -1 -1 -0.0152079 0.0257936 -0.0137218 15.75 -0.431455 -40.8308 
6327 396 3 1.008 0.03 10.5498 11.529 5.51276 -136.997 159.076 -43.6696 -3 3 -1 -0.0123937 0.0334402 -0.01908 2.79927 38.9662 10.7995 
9823 616 8 19 -0.16 16.636 15.1237 2.72876 65.8184 15.1237 2.72876 1 0 0 -0.0028444 0.00158046 -0.00934547 9.38134 3.60464 -2.92609 
4757 298 2 12.01 0.11 12.9699 13.3074 1.27926 62.1523 13.3074 1.27926 1 0 0 0.005896 -0.00345678 -0.00147937 -15.0465 8.71458 -5.68342 
6330 396 3 1.008 0.03 9.2954 9.05767 4.89565 -138.252 156.605 -44.2867 -3 3 -1 -0.00132563 -0.0159605 0.00332977 -19.934 -12.3193 -13.1131 
8650 541 3 1.008 0.03 10.6341 14.7846 5.93128 -38.5483 -34.3977 -43.2511 -1 -1 -1 0.00955724 0.00306739 -0.00392291 -0.613166 1.79286 19.7904 
8645 541 2 12.01 0.11 14.1123 16.3625 3.69716 -35.07 -32.8198 -45.4852 -1 -1 -1 0.000708415 -0.00657819 -0.0138912 -10.9181 -21.0659 39.7645 
8652 541 3 1.008 0.03 14.8703 15.9077 4.39346 -34.3121 -33.2747 -44.7889 -1 -1 -1 -0.0138487 0.0172108 0.00229427 -17.9118 15.1159 -8.78022 
8643 541 2 12.01 0.14 12.2481 15.7947 4.95431 -36.9343 -33.3876 -44.228 -1 -1 -1 -0.00163307 -0.00733684 0.0010733 -4.84523 8.98074 -23.5618 
8647 541 3 1.008 0.03 12.8795 15.4192 5.72843 -36.3029 -33.7632 -43.4539 -1 -1 -1 -0.0119007 0.0134564 -0.018645 13.9349 8.36474 14.8033 
9033 565 3 1.008 0.03 16.4613 10.3302 1.60683 16.4613 -137.217 99.9715 0 -3 2 0.00438642 0.005279 0.00163508 18.2057 7.24487 9.54945 
9026 565 1 16 -0.4 15.081 8.75867 1.68087 15.081 -138.788 100.046 0 -3 2 0.00302874 -0.00111423 0.0068391 20.5459 31.2874 -20.4819 
6325 396 2 12.01 0.11 12.177 10.4008 7.11113 -135.37 157.948 -42.0712 -3 3 -1 0.000324634 -0.00707097 -0.00399965 -9.5356 9.27237 15.7886 
9028 565 2 12.01 0.14 15.7832 9.84789 0.950831 15.7832 -137.699 99.3155 0 -3 2 0.00636166 0.0177229 -0.0015417 -44.7006 -36.9198 -11.944 
6331 396 3 1.008 0.03 13.1741 10.1167 6.87455 -134.373 157.664 -42.3078 -3 3 -1 -0.0171039 -0.00101558 0.0214221 15.5143 -2.31544 -11.0613 
6332 396 3 1.008 0.03 12.1097 11.5076 7.08163 -135.437 159.055 -42.1007 -3 3 -1 -0.0146303 -0.0271092 -0.0289904 -0.154433 -13.0362 5.70686 
4753 298 1 16 -0.4 11.7428 13.2237 0.543303 60.9252 13.2237 0.543303 1 0 0 0.00242904 0.00147193 0.0011218 -2.64929 11.3016 23.5454 
9034 565 3 1.008 0.03 15.0574 10.6358 0.644047 15.0574 -136.911 99.0087 0 -3 2 -0.00911793 0.00638656 -0.00340413 8.65061 -13.43 3.13322 
9830 616 8 19 -0.16 17.3823 16.38 6.32053 66.5646 16.38 6.32053 1 0 0 -0.002756 0.0080578 0.00440787 20.5136 27.1176 5.34404 
9824 616 8 19 -0.16 17.3304 13.1971 2.64372 66.5128 13.1971 2.64372 1 0 0 -0.00272852 0.00284872 -0.00170856 0.314554 -38.6701 8.46375 
7795 488 2 12.01 0.14 24.401 16.5484 6.87673 73.5834 16.5484 6.87673 1 0 0 -0.00630281 -0.00574941 0.00420993 -6.4423 -14.864 10.5161 
9828 616 7 12.01 0.35 18.7223 16.5095 6.42855 67.9046 16.5095 6.42855 1 0 0 -0.0034385 -0.00608161 -0.000741172 -1.93201 -56.214 -25.9053 
10321 649 6 16 -0.53 21.5828 9.413 3.34892 21.5828 9.413 3.34892 0 0 0 -0.00454021 -0.00642903 0.00243152 9.44443 16.3191 22.4134 
7793 488 1 16 -0.4 23.1597 16.2279 6.19743 72.342 16.2279 6.19743 1 0 0 -0.00471993 -0.00131383 -0.00742348 18.9844 -2.68751 18.53 
9822 616 8 19 -0.16 17.9907 14.5276 1.1906 67.173 14.5276 1.1906 1 0 0 0.00216792 0.00251229 -0.00121929 -2.22946 2.35427 -10.2802 
4951 310 3 1.008 0.03 23.7691 11.2514 5.92399 72.9514 11.2514 5.92399 1 0 0 0.0177237 0.0102566 0.0339279 -15.2019 -4.71296 8.16318 
10325 649 8 19 -0.16 18.78 10.0295 2.23294 18.78 10.0295 2.23294 0 0 0 -0.00404717 -0.000160934 0.00400074 21.6516 10.6241 -25.8952 
10323 649 7 12.01 0.35 18.9938 9.17876 3.18723 18.9938 9.17876 3.18723 0 0 0 0.0019372 -0.00419555 -0.00058683 -53.0767 -5.99118 23.5118 