ITEM: TIMESTEP
700000
ITEM: NUMBER OF ATOMS
10479
ITEM: BOX BOUNDS pp pp pp
4.0882558190751794e-01 4.9591174418091420e+01
4.0882558190751794e-01 4.9591174418091420e+01
4.0882558190751794e-01 4.9591174418091420e+01
ITEM: ATOMS id mol type mass q x y z xu yu zu ix iy iz vx vy vz fx fy fz 
6037 378 2 12.01 0.11 3.92559 5.43476 4.98332 3.92559 -43.7476 -93.3814 0 -1 -2 0.00352215 0.00189596 0.0054117 -47.0068 -0.122437 -24.9376 
6035 378 2 12.01 0.14 2.23375 4.18534 3.9614 2.23375 -44.997 -94.4033 0 -1 -2 0.00300124 0.00701992 0.00340821 0.51767 24.2963 25.353 
6033 378 1 16 -0.4 2.79231 5.52242 4.06592 2.79231 -43.6599 -94.2988 0 -1 -2 0.00472617 -0.00491623 0.000725311 18.2672 -34.8842 13.6701 
6040 378 3 1.008 0.03 2.12285 3.74901 4.98866 2.12285 -45.4333 -93.376 0 -1 -2 -0.021557 0.00143882 0.0177375 -12.9144 2.86895 -24.3667 
6043 378 3 1.008 0.03 4.28999 6.41134 5.17565 4.28999 -42.771 -93.189 0 -1 -2 -0.0145536 -0.039241 0.00390892 13.4181 16.789 1.32259 
6045 378 3 1.008 0.03 4.68456 4.75425 4.62491 4.68456 -44.4281 -93.7398 0 -1 -2 0.0164554 -0.00451809 0.00758098 8.95485 -0.951461 -0.567209 
2386 150 1 16 -0.4 6.58056 6.55682 6.78382 -91.7841 55.7392 55.9662 -2 1 1 -0.00302654 0.00400786 0.00306028 -12.9456 -44.3466 18.1683 
6044 378 3 1.008 0.03 3.49452 5.06906 5.89903 3.49452 -44.1133 -92.4657 0 -1 -2 0.0315665 -0.0113922 0.00813941 7.89081 -2.16257 14.8038 
6039 378 3 1.008 0.03 2.99955 3.64931 3.49615 2.99955 -45.533 -94.8686 0 -1 -2 0.0131344 -0.0123125 -0.00281501 21.0318 -22.7752 -10.9942 
8568 536 3 1.008 0.03 7.01324 2.75504 4.18791 7.01324 2.75504 -44.9944 0 0 -1 -0.00414094 0.00468182 -0.00230953 -1.17324 -5.03811 -2.72873 
8563 536 2 12.01 0.14 6.35864 2.15039 3.55049 6.35864 2.15039 -45.6319 0 0 -1 -0.000216602 -0.000851794 0.00139531 -22.0245 -17.4088 -3.85443 
8570 536 3 1.008 0.03 6.79377 2.77973 1.47867 6.79377 2.77973 -47.7037 0 0 -1 -0.012476 0.0100001 -0.0214455 -3.45689 -0.512833 7.86843 
8569 536 3 1.008 0.03 6.03899 3.93725 2.54128 6.03899 3.93725 -46.6411 0 0 -1 0.023629 0.000237557 9.16277e-05 2.79186 14.4359 -0.549112 
8564 536 2 12.01 0.14 6.02809 2.90426 2.26211 6.02809 2.90426 -46.9202 0 0 -1 -0.00611133 -0.000811797 -0.0014378 -15.6726 1.10009 -24.9546 
6034 378 1 16 -0.4 0.753091 2.79469 2.5435 0.753091 -46.3877 -95.8212 0 -1 -2 -0.00322053 0.00317402 0.00243183 6.04185 7.2591 25.4073 
2988 187 3 1.008 0.03 6.45272 7.47906 2.89904 6.45272 7.47906 101.264 0 0 2 -0.00146089 0.00356303 -0.011131 -0.199565 -8.96403 12.2209 
6042 378 3 1.008 0.03 1.43827 4.67858 2.12235 1.43827 -44.5038 -96.2424 0 -1 -2 0.00373404 0.015255 -0.0113875 -8.42918 -7.58884 3.41863 
6036 378 2 12.01 0.14 1.04715 4.12404 2.99538 1.04715 -45.0583 -95.3693 0 -1 -2 0.000768695 0.00429181 0.00991547 39.8384 4.95076 -26.4724 
4786 300 1 16 -0.4 4.22306 1.46915 6.66973 53.4054 1.46915 6.66973 1 0 0 -0.00448455 0.00275588 -0.00107025 22.0576 2.48078 -11.5111 
2392 150 3 1.008 0.03 7.32033 4.22562 5.79346 -91.0444 53.408 54.9758 -2 1 1 -0.0155908 0.0117427 0.00421449 27.3776 11.2423 15.2892 
2981 187 2 12.01 0.11 6.86239 8.29151 2.33292 6.86239 8.29151 100.698 0 0 2 0.00714089 -0.00488262 0.000131314 12.5649 4.33573 -6.73445 
4799 300 3 1.008 0.03 6.26498 1.97771 6.71225 55.4473 1.97771 6.71225 1 0 0 -0.00418854 0.03168 0.0152937 -10.8664 8.19073 3.14636 
2387 150 2 12.01 0.14 8.20625 4.82809 6.16989 -90.1584 54.0104 55.3522 -2 1 1 0.00082596 -0.00312051 -0.000371146 -63.3567 8.02829 -0.315463 
2388 150 2 12.01 0.14 7.7606 6.32689 6.09628 -90.6041 55.5092 55.2786 -2 1 1 0.00809068 -0.00385153 0.00679876 59.2956 -0.182172 -3.92175 
2400 150 3 1.008 0.03 5.22944 8.08782 7.17903 -93.1353 57.2702 56.3614 -2 1 1 -0.00426025 -0.0151821 0.0110335 8.87431 -12.1429 -0.577716 
2390 150 2 12.01 0.11 6.27509 7.86875 6.89191 -92.0896 57.0511 56.0743 -2 1 1 0.00463006 0.00345449 0.00518322 -33.4602 52.4622 -24.1195 
4785 300 1 16 -0.4 1.1523 1.95256 6.46131 50.3346 1.95256 6.46131 1 0 0 -0.00190855 0.000210485 -0.00727162 -16.5362 4.91915 -9.19942 
5316 333 2 12.01 0.14 1.09618 7.84544 5.63262 50.2785 106.21 54.815 1 2 1 0.00258919 0.00271623 0.00122121 -4.10842 -0.291459 -0.0480697 
8567 536 3 1.008 0.03 5.4015 1.948 4.10657 5.4015 1.948 -45.0758 0 0 -1 0.00901021 -0.00302526 0.0018177 18.9195 9.0077 -9.35796 
5321 333 3 1.008 0.03 1.58128 7.17303 4.98251 50.7636 105.538 54.1649 1 2 1 0.000395195 -0.0248324 -0.0092748 12.7556 -7.2317 -7.35886 
2989 187 3 1.008 0.03 6.48856 8.1655 1.34505 6.48856 8.1655 99.7097 0 0 2 -0.00157855 0.00342852 0.00980012 -3.65597 -5.01278 -17.8692 
8562 536 1 16 -0.4 4.69806 2.73341 1.68328 4.69806 2.73341 -47.4991 0 0 -1 0.0010222 0.00170853 0.00209272 12.4945 -20.353 13.7747 
8576 536 3 1.008 0.03 4.40876 0.715261 2.19447 4.40876 0.715261 -46.9879 0 0 -1 0.0178872 -0.017572 0.0227209 6.53287 -5.14742 5.92465 
2394 150 3 1.008 0.03 7.59405 6.56608 5.01618 -90.7706 55.7484 54.1985 -2 1 1 0.0040957 0.0236453 -0.0184011 6.1654 1.09474 18.5115 
8574 536 3 1.008 0.03 3.37702 1.22624 0.937242 3.37702 1.22624 -48.2451 0 0 -1 -0.0243349 -0.0181451 0.0176153 0.931661 9.16782 -0.544952 
4787 300 2 12.01 0.14 1.95525 0.81022 6.51509 51.1376 0.81022 6.51509 1 0 0 0.00892237 0.00177852 0.000889021 36.7817 20.4987 -4.23117 
8566 536 2 12.01 0.11 4.38502 1.36683 1.33533 4.38502 1.36683 -47.847 0 0 -1 0.0040321 -0.00817359 -0.00188104 -32.8083 32.1778 31.2551 
2987 187 3 1.008 0.03 7.96718 8.23112 2.2661 7.96718 8.23112 100.631 0 0 2 -0.00510059 0.0108245 0.00774139 -12.8216 0.983362 4.75051 
2399 150 3 1.008 0.03 6.36114 8.29009 5.87657 -92.0036 57.4724 55.0589 -2 1 1 -0.00912864 -0.020664 0.00298509 -0.273216 4.54988 9.43456 
8561 536 1 16 -0.4 6.99623 0.913343 3.19247 6.99623 0.913343 -45.9899 0 0 -1 0.00322233 0.00477769 -0.00822643 -22.4064 -11.1307 34.6762 
8572 536 3 1.008 0.03 7.34718 0.615642 5.1199 7.34718 0.615642 -44.0625 0 0 -1 -0.00572042 -0.000704769 -0.0156323 -2.56655 -14.2703 19.3551 
5320 333 3 1.008 0.03 1.33384 6.47341 7.32797 50.5162 104.838 56.5103 1 2 1 0.0127903 -0.0195763 -0.0232958 -5.33013 -23.9602 -4.89959 
4790 300 2 12.01 0.11 5.44817 1.66081 7.37774 54.6305 1.66081 7.37774 1 0 0 0.00209916 -0.00237342 0.00480537 17.7911 -1.44117 45.2611 
8575 536 3 1.008 0.03 5.01796 1.05469 0.60846 5.01796 1.05469 -48.5739 0 0 -1 -0.0103249 -0.00472596 -0.000587951 35.0114 -20.3099 -33.8928 
4792 300 3 1.008 0.03 2.3748 0.456142 5.58475 51.5572 0.456142 5.58475 1 0 0 -0.0115742 -0.0297344 -0.00851969 -4.89464 7.30952 -14.0066 
5315 333 2 12.01 0.14 1.47996 7.487 7.06158 50.6623 105.852 56.2439 1 2 1 -0.00754197 -0.0023493 -0.0110252 24.5085 25.4024 9.25682 
5319 333 3 1.008 0.03 2.5744 7.65799 7.14919 51.7567 106.023 56.3315 1 2 1 0.0189489 -0.00499385 -0.00829169 -13.9692 0.362878 2.8657 
723 46 2 12.01 0.14 11.762 0.453477 6.35709 11.762 -147.094 6.35709 0 -3 0 -0.000934395 -0.00312592 0.00148057 -47.7557 6.84453 71.3251 
734 46 3 1.008 0.03 10.8819 0.426245 2.34674 10.8819 -147.121 2.34674 0 -3 0 -0.0321195 -0.00113023 -0.00230533 -12.2984 -3.39555 0.855123 
736 46 3 1.008 0.03 9.50215 1.66596 2.622 9.50215 -145.881 2.622 0 -3 0 -0.0116305 0.000594481 -0.00619956 35.5113 -39.3734 20.2382 
722 46 1 16 -0.4 10.7713 1.07391 4.30557 10.7713 -146.473 4.30557 0 -3 0 0.00766796 -0.00545015 0.00645101 -6.7247 10.9554 -8.7911 
726 46 2 12.01 0.11 10.1139 0.767139 3.06016 10.1139 -146.78 3.06016 0 -3 0 -0.000253662 0.00129094 0.000992924 -15.3613 42.3774 6.79441 
2283 143 3 1.008 0.03 14.7945 0.538536 3.11448 14.7945 49.7209 -46.0679 0 1 -1 -0.00485106 -0.000268855 -0.0143537 -13.518 5.66022 -8.91006 
5874 368 1 16 -0.4 13.9653 5.76649 3.98948 210.695 5.76649 -45.1929 4 0 -1 0.00248636 0.00350372 0.00185578 -8.15103 -2.27526 9.64562 
5878 368 2 12.01 0.11 15.1005 5.71891 3.15076 211.83 5.71891 -46.0316 4 0 -1 -0.0013832 -0.0116865 -0.00145872 -4.95914 -8.13289 -33.3221 
5885 368 3 1.008 0.03 9.96206 3.94095 3.30802 206.691 3.94095 -45.8743 4 0 -1 -0.0245112 0.00183719 0.0298902 -9.08869 -32.0291 1.28853 
5879 368 3 1.008 0.03 12.0338 4.86849 5.65174 208.763 4.86849 -43.5306 4 0 -1 0.0157614 -0.00346885 -0.0208362 -2.29473 -10.7941 -19.2966 
5881 368 3 1.008 0.03 13.9683 3.83258 4.69441 210.698 3.83258 -44.4879 4 0 -1 0.00803334 -0.0240234 -0.00930235 12.7716 -10.4218 11.8282 
5876 368 2 12.01 0.14 13.3726 4.47959 4.09989 210.102 4.47959 -45.0825 4 0 -1 0.000874879 0.00148027 -0.0047162 23.3765 2.38598 -51.6247 
5875 368 2 12.01 0.14 11.9833 4.47838 4.60253 208.713 4.47838 -44.5798 4 0 -1 -0.00678215 0.00279858 0.00596964 -31.5244 57.2859 32.672 
5880 368 3 1.008 0.03 11.6242 3.4689 4.64965 208.354 3.4689 -44.5327 4 0 -1 -0.0021302 0.00802538 0.0337991 -6.23777 -11.1185 4.18083 
5882 368 3 1.008 0.03 13.4133 4.06838 3.06886 210.143 4.06838 -46.1135 4 0 -1 0.0188476 -0.0347223 0.0150334 -10.8809 -5.10451 16.3204 
5873 368 1 16 -0.4 11.0838 5.39741 3.88045 207.813 5.39741 -45.3019 4 0 -1 -0.000550765 0.000239583 -0.00177296 30.9356 -28.4884 17.9248 
5877 368 2 12.01 0.11 10.561 4.65732 2.82599 207.29 4.65732 -46.3564 4 0 -1 -0.000493029 0.0086347 -0.00629918 -19.8201 29.8403 -22.9397 
5886 368 3 1.008 0.03 15.8972 5.0618 3.4443 212.627 5.0618 -45.738 4 0 -1 0.00142752 0.00258876 0.0194645 10.6712 1.69283 17.3914 
5887 368 3 1.008 0.03 14.8763 5.25851 2.17916 211.606 5.25851 -47.0032 4 0 -1 0.0241575 -0.00813111 0.0113677 -5.88196 8.08504 2.88584 
5888 368 3 1.008 0.03 15.4247 6.70624 2.86765 212.154 6.70624 -46.3147 4 0 -1 -0.0367577 -0.0276816 -0.00047091 8.38784 8.66127 6.64381 
5884 368 3 1.008 0.03 11.3294 4.2877 2.14198 208.059 4.2877 -47.0404 4 0 -1 -0.0240369 0.0131736 -0.00736721 -4.47461 -6.4942 0.873744 
2391 150 3 1.008 0.03 8.94545 4.76688 5.42449 -89.4193 53.9492 54.6068 -2 1 1 -0.00138462 0.00282966 -0.0173263 26.5613 -11.3966 -9.73349 
2279 143 3 1.008 0.03 15.8068 1.13417 0.876214 15.8068 50.3165 -48.3061 0 1 -1 -0.00872355 -0.00223544 -0.0171333 -12.014 6.68701 1.18066 
5883 368 3 1.008 0.03 9.78893 5.20128 2.2535 206.518 5.20128 -46.9288 4 0 -1 0.00018148 -0.00678021 0.0209934 14.1489 2.95656 2.75348 
8925 558 3 1.008 0.03 15.0133 6.93555 6.16486 64.1957 56.1179 6.16486 1 1 0 0.00300876 -0.0206068 0.028895 -3.2402 5.40702 -8.48493 
8924 558 3 1.008 0.03 15.1621 5.20492 6.34135 64.3444 54.3873 6.34135 1 1 0 0.00519326 -0.00370743 0.00503267 8.6499 6.37756 7.26592 
8917 558 2 12.01 0.11 15.7104 6.15987 6.43475 64.8927 55.3422 6.43475 1 1 0 0.00287917 0.0058881 -0.00605798 -14.8106 1.33113 39.4385 
8923 558 3 1.008 0.03 16.4674 6.19158 5.71831 65.6497 55.3739 5.71831 1 1 0 0.0123338 -0.0456529 0.00289928 26.8241 -0.411064 -18.2159 
2275 143 2 12.01 0.14 16.7497 0.838474 1.29562 16.7497 50.0208 -47.8867 0 1 -1 -0.00208667 -0.00480928 -0.00548612 2.51647 -15.4394 12.4314 
1833 115 3 1.008 0.03 12.5151 7.97425 6.7259 12.5151 7.97425 -140.821 0 0 -3 0.0172327 0.0102702 0.00304014 -5.25878 -13.2484 -2.06481 
2285 143 3 1.008 0.03 16.2751 0.764387 4.05421 16.2751 49.9467 -45.1281 0 1 -1 -0.0324131 -0.0147742 0.0138338 -17.8798 -18.3661 -7.34324 
1828 115 2 12.01 0.14 11.4402 7.87117 6.92661 11.4402 7.87117 -140.62 0 0 -3 -0.00540196 0.00379983 0.00388324 -5.9304 37.0336 26.0207 
9504 595 6 16 -0.53 12.9046 1.7137 0.544312 12.9046 50.896 49.7267 0 1 1 0.00203718 0.00245239 -0.00134394 5.5382 -3.29344 -7.5051 
1834 115 3 1.008 0.03 10.9224 7.72466 5.98064 10.9224 7.72466 -141.566 0 0 -3 -0.0297104 -0.0120976 0.00924643 -1.11051 -3.62914 -0.913573 
1325 83 3 1.008 0.03 11.6639 7.73681 1.97576 60.8462 7.73681 1.97576 1 0 0 0.00605186 -0.00737187 0.00993229 -0.675645 7.23282 7.92367 
1324 83 3 1.008 0.03 10.2542 8.15626 2.94042 59.4366 8.15626 2.94042 1 0 0 -0.0111907 -0.0321658 -0.000855314 -13.1191 1.19478 -1.74293 
1317 83 2 12.01 0.11 11.3172 8.26584 2.88195 60.4995 8.26584 2.88195 1 0 0 -0.00589474 0.000565933 -0.00239226 15.5899 -31.132 16.0663 
1323 83 3 1.008 0.03 11.7046 7.75042 3.79082 60.8869 7.75042 3.79082 1 0 0 0.0302428 -0.000114407 0.000133169 -1.85081 6.58331 -16.8176 
728 46 3 1.008 0.03 10.7473 0.818514 6.83342 10.7473 -146.729 6.83342 0 -3 0 -0.0201187 -0.0252718 -0.00172914 55.5531 -16.8652 -24.2802 
1831 115 3 1.008 0.03 10.9643 5.80539 7.41938 10.9643 5.80539 -140.128 0 0 -3 -0.0274783 -0.0124507 -0.00287593 5.09899 3.16208 2.86839 
721 46 1 16 -0.4 12.7317 1.50934 6.45378 12.7317 -146.038 6.45378 0 -3 0 0.00387304 -0.000864087 -0.00222747 6.47728 -13.9495 -10.987 
2393 150 3 1.008 0.03 8.6312 6.94619 6.52537 -89.7335 56.1285 55.7077 -2 1 1 0.00118931 -0.00181712 -0.00516858 -35.7306 -16.8737 -20.5919 
2396 150 3 1.008 0.03 10.4876 3.42944 7.12072 -87.8771 52.6118 56.3031 -2 1 1 -0.00100257 0.00118203 0.00899073 5.21754 12.0087 -5.01956 
2395 150 3 1.008 0.03 9.1247 2.36358 7.11557 -89.24 51.5459 56.2979 -2 1 1 0.0185277 0.00250108 -0.00519055 -8.64896 9.47158 -4.21765 
10109 635 8 19 -0.16 20.2712 8.27541 1.54419 118.636 57.4578 1.54419 2 1 0 -0.00138841 0.00125081 -0.00233978 -0.326929 0.213758 -2.49176 
3246 203 3 1.008 0.03 20.6619 3.57753 0.710393 69.8442 52.7599 99.0751 1 1 2 -0.00569095 -0.00584806 -0.0253096 -14.9081 -2.19792 -5.88823 
2280 143 3 1.008 0.03 17.318 1.67643 1.65667 17.318 50.8588 -47.5257 0 1 -1 -0.00666236 -0.00227023 -0.0253828 0.237785 12.4562 2.80572 
7652 479 2 12.01 0.14 21.3415 0.534223 5.70734 -27.8409 49.7166 5.70734 -1 1 0 0.0045838 -5.73796e-05 0.006502 27.3403 -54.9718 -21.1651 
2589 162 3 1.008 0.03 21.9618 7.64926 3.80987 21.9618 7.64926 52.9922 0 0 1 0.00471715 -0.00414197 -0.00609871 -14.7775 -8.5609 -8.75388 
2577 162 1 16 -0.4 23.9922 7.39273 3.7602 23.9922 7.39273 52.9425 0 0 1 0.00253483 0.00406597 0.00222094 4.8215 26.7503 14.6688 
3242 203 3 1.008 0.03 22.7357 6.63835 0.89689 71.918 55.8207 99.2616 1 1 2 0.019601 0.0155949 0.025631 -10.4676 2.21217 -1.88327 
3248 203 3 1.008 0.03 20.7048 5.22065 1.46767 69.8871 54.403 99.8324 1 1 2 0.000827766 -0.0317738 0.0070141 2.5211 -10.8461 -9.68056 
8776 549 3 1.008 0.03 20.1364 7.65952 5.22875 -29.046 -41.5228 5.22875 -1 -1 0 -0.00328311 0.00881245 0.0243802 9.23976 -2.33534 10.9038 
8784 549 3 1.008 0.03 19.5796 3.16736 4.14684 -29.6028 -46.015 4.14684 -1 -1 0 0.00611699 0.0155898 -0.0155987 1.06351 -9.46943 6.14671 
7658 479 3 1.008 0.03 22.1755 0.855198 6.28387 -27.0068 50.0375 6.28387 -1 1 0 0.0106125 -0.0199985 0.0225536 11.5171 15.0853 8.68859 
3238 203 2 12.01 0.11 21.2904 4.37296 1.05233 70.4728 53.5553 99.417 1 1 2 -0.00186326 0.00367002 -0.00339952 2.00877 19.6205 14.7474 
3247 203 3 1.008 0.03 21.8095 3.93781 1.90691 70.9918 53.1202 100.272 1 1 2 -0.0120831 0.00260059 0.00455386 3.53408 0.398002 -1.14361 
8783 549 3 1.008 0.03 18.226 3.86597 3.36036 -30.9563 -45.3164 3.36036 -1 -1 0 -0.00493197 -0.0109663 -0.011065 -1.54494 6.0797 -1.81638 
8777 549 3 1.008 0.03 19.0657 6.09413 3.89001 -30.1167 -43.0882 3.89001 -1 -1 0 -0.0137443 -0.00167366 -0.0180243 -6.51137 4.51106 -22.0934 
8775 549 3 1.008 0.03 18.783 7.28742 6.2413 -30.3994 -41.8949 6.2413 -1 -1 0 0.0061924 0.011312 0.0193018 2.48261 -9.52941 -13.4011 
3241 203 3 1.008 0.03 23.5547 5.25926 1.47245 72.7371 54.4416 99.8372 1 1 2 -0.00714388 0.0148072 0.0018094 1.06604 -5.88417 9.08534 
8772 549 2 12.01 0.14 19.467 5.65976 4.76781 -29.7154 -43.5226 4.76781 -1 -1 0 -0.00310528 0.000260442 -0.000751309 13.569 17.5899 40.7066 
8770 549 1 16 -0.4 18.6123 4.64254 5.23624 -30.57 -44.5398 5.23624 -1 -1 0 -0.00311212 0.000383478 0.00268183 -3.7659 8.28596 10.5043 
8774 549 2 12.01 0.11 18.5888 3.56796 4.33931 -30.5936 -45.6144 4.33931 -1 -1 0 -0.00273754 0.00565852 -0.00285461 -7.79208 0.556702 -17.8563 
8782 549 3 1.008 0.03 17.863 2.83424 4.65553 -31.3193 -46.3481 4.65553 -1 -1 0 0.00542221 -0.0219949 0.00447826 2.68288 -10.5956 6.78708 
8771 549 2 12.01 0.14 19.6947 6.83816 5.80212 -29.4877 -42.3442 5.80212 -1 -1 0 -0.00630769 -0.00676955 -0.0057579 -29.0146 -0.503717 -10.476 
8778 549 3 1.008 0.03 20.4309 5.19812 4.56749 -28.7514 -43.9842 4.56749 -1 -1 0 -0.00212553 0.0110187 -0.0256594 4.25622 4.78682 -6.4491 
2581 162 2 12.01 0.11 22.8365 8.08855 4.22046 22.8365 8.08855 53.4028 0 0 1 0.00486299 0.00562592 0.00568512 8.7987 -23.1816 25.0687 
3262 204 3 1.008 0.03 23.7848 0.413288 2.95001 122.149 49.5956 101.315 2 1 2 -0.00400438 -0.00470714 0.0376533 4.66403 2.54666 -7.47228 
10105 635 6 16 -0.53 17.7221 6.83498 1.13941 116.087 56.0173 1.13941 2 1 0 -0.006428 0.00457787 0.00432599 -12.2439 5.84334 3.47698 
3236 203 2 12.01 0.14 23.1352 5.68659 0.577849 72.3175 54.8689 98.9425 1 1 2 -0.00585912 -0.000764987 0.00935637 42.8896 7.03015 -17.9806 
2591 162 3 1.008 0.03 24.9199 5.18615 3.72397 24.9199 5.18615 52.9063 0 0 1 0.00318133 -0.000788088 0.0295816 2.6775 2.35118 12.2258 
2587 162 3 1.008 0.03 22.7008 8.13407 5.32612 22.7008 8.13407 54.5085 0 0 1 0.00236579 -0.00443396 -0.0037925 10.4807 -5.30956 -24.1476 
7657 479 3 1.008 0.03 20.9623 1.34873 5.09648 -28.2201 50.5311 5.09648 -1 1 0 0.00877784 -0.0213412 -0.0152938 1.53066 2.29892 -2.53277 
4927 308 3 1.008 0.03 23.6367 1.5418 0.861037 23.6367 1.5418 99.2257 0 0 2 -0.00443468 -0.013142 0.0109771 -19.7981 -11.1873 -29.576 
10103 635 5 32.06 1.02 17.6647 8.22984 0.748664 116.029 57.4122 0.748664 2 1 0 0.000353821 -6.05002e-05 -0.000910584 49.5643 -10.4217 46.8537 
8769 549 1 16 -0.4 20.3953 6.35886 6.92272 -28.787 -42.8235 6.92272 -1 -1 0 0.0026377 0.00305724 -0.00562869 28.2423 4.33093 14.1653 
7757 485 3 1.008 0.03 24.1999 2.4455 6.86074 24.1999 100.81 6.86074 0 2 0 0.0203456 0.0137988 -0.00616047 6.633 7.40607 8.81986 
8780 549 3 1.008 0.03 21.8321 7.79422 7.09822 -27.3503 -41.3881 7.09822 -1 -1 0 0.0204491 0.00441062 0.00630889 23.0841 7.72034 0.692674 
7655 479 3 1.008 0.03 20.1215 0.705418 7.41495 -29.0609 49.8878 7.41495 -1 1 0 -0.00104333 0.00985252 0.02774 -5.92424 11.4282 6.68609 
2984 187 3 1.008 0.03 4.72726 8.9684 3.88514 4.72726 8.9684 102.25 0 0 2 -0.0151371 -0.00188941 -0.0106438 10.6012 9.08801 -11.4581 
2979 187 2 12.01 0.14 5.01873 9.60489 3.0158 5.01873 9.60489 101.381 0 0 2 0.00227303 0.00365535 0.00731218 2.24995 -8.03316 34.9078 
2983 187 3 1.008 0.03 4.44206 9.18623 2.22855 4.44206 9.18623 100.593 0 0 2 -0.00627597 0.0221454 -0.0129944 -9.06836 1.3201 -21.0223 
8021 502 2 12.01 0.11 2.00999 15.212 1.85815 100.375 113.577 100.223 2 2 2 0.000679041 0.00155212 0.00838496 11.038 21.3999 -10.6589 
8023 502 3 1.008 0.03 4.35702 15.8113 1.75476 102.722 114.176 100.119 2 2 2 0.0164091 0.0183032 -0.00571679 2.81033 17.1795 6.17437 
2982 187 2 12.01 0.11 4.81727 12.7602 4.95167 4.81727 12.7602 103.316 0 0 2 0.00132718 -0.00676686 -0.00289868 -8.72969 15.492 -36.5916 
2977 187 1 16 -0.4 6.40661 9.55164 2.75057 6.40661 9.55164 101.115 0 0 2 -0.00153813 0.00545316 0.00169496 8.03704 7.45599 6.07317 
2978 187 1 16 -0.4 5.11195 11.403 4.66572 5.11195 11.403 103.03 0 0 2 0.00598037 0.0016738 0.00071187 7.70118 5.68382 -14.4881 
2980 187 2 12.01 0.14 4.66214 11.0539 3.35563 4.66214 11.0539 101.72 0 0 2 -0.0011629 0.000368835 0.000212886 -27.6839 22.5707 -9.11832 
2986 187 3 1.008 0.03 3.57229 11.1203 3.42263 3.57229 11.1203 101.787 0 0 2 0.0089954 0.0167805 0.00985485 1.18679 -6.28215 0.710635 
2985 187 3 1.008 0.03 4.83061 11.8302 2.55747 4.83061 11.8302 100.922 0 0 2 -0.000185532 -0.0204595 -0.0308101 11.5178 -22.2242 14.3335 
2990 187 3 1.008 0.03 3.76151 12.9063 5.07787 3.76151 12.9063 103.443 0 0 2 -0.00066707 0.0299106 -0.0111705 -11.8988 -5.70995 10.0309 
2991 187 3 1.008 0.03 5.30824 13.0451 5.85956 5.30824 13.0451 104.224 0 0 2 0.00561622 0.0083873 0.00470737 7.53958 9.67518 8.42852 
2992 187 3 1.008 0.03 4.97175 13.48 4.08672 4.97175 13.48 102.451 0 0 2 -0.000352704 0.00266112 -0.0128018 12.2853 -19.1659 25.8908 
8029 502 3 1.008 0.03 1.27029 14.6887 1.22913 99.635 113.053 99.5938 2 2 2 0.00757307 -0.00816114 0.0133422 2.68983 10.2756 4.08414 
8019 502 2 12.01 0.14 3.76818 16.7515 1.74179 102.133 115.116 100.106 2 2 2 0.00778808 -0.000896668 -0.00344346 20.4096 -6.76465 -39.7228 
2483 156 2 12.01 0.14 7.84854 12.9771 2.32709 7.84854 12.9771 51.5094 0 0 1 -0.0092767 -0.00194977 -0.00209688 32.4308 -52.8068 -24.471 
2487 156 3 1.008 0.03 6.98924 12.8715 1.68305 6.98924 12.8715 50.8654 0 0 1 0.00392735 -0.0178548 -0.0159807 -14.1302 -15.7852 8.88501 
2488 156 3 1.008 0.03 7.87315 12.2681 3.21822 7.87315 12.2681 52.4006 0 0 1 0.0245206 0.0147591 -0.034407 -6.79062 22.2856 -23.4673 
8017 502 1 16 -0.4 2.47484 16.5084 1.2903 100.84 114.873 99.655 2 2 2 0.00445097 -0.00320585 0.00506363 -27.9332 -52.0527 15.219 
2484 156 2 12.01 0.14 7.87602 14.4037 2.66473 7.87602 14.4037 51.8471 0 0 1 0.000474511 0.00414944 0.00636317 38.8026 49.3377 66.0618 
2489 156 3 1.008 0.03 7.35343 14.5932 3.61504 7.35343 14.5932 52.7974 0 0 1 0.000361868 0.0207928 0.00304889 -4.63385 -5.49946 -9.46632 
2482 156 1 16 -0.4 7.28878 15.1565 1.66953 7.28878 15.1565 50.8519 0 0 1 -0.00062632 0.00329823 0.00199756 -14.8658 -21.9732 -33.5972 
5318 333 2 12.01 0.11 0.566225 10.1561 5.42992 49.7486 108.521 54.6123 1 2 1 -0.0032953 0.00265712 0.000392851 41.3749 -46.8607 15.3155 
8018 502 1 16 -0.4 3.54949 16.7879 4.12045 101.914 115.153 102.485 2 2 2 0.00398512 -0.00553437 -0.00441328 -4.99939 14.8656 47.1943 
5314 333 1 16 -0.4 1.55155 9.12779 5.25125 50.7339 107.492 54.4336 1 2 1 0.00270617 -0.00580125 0.00475196 -7.82416 11.9085 -5.00257 
5328 333 3 1.008 0.03 0.897409 10.9988 4.88135 50.0798 109.363 54.0637 1 2 1 -0.00113198 0.00862241 0.0259279 -5.93325 19.0604 -13.0866 
8028 502 3 1.008 0.03 1.59803 15.3357 2.86371 99.9627 113.7 101.228 2 2 2 -0.00531302 0.0208803 0.0239852 -1.68893 2.9988 -3.26106 
5327 333 3 1.008 0.03 0.543374 10.3947 6.44561 49.7257 108.759 55.628 1 2 1 0.0140231 -0.014743 0.0152362 2.88527 13.1981 29.6388 
8027 502 3 1.008 0.03 2.84166 14.4997 1.98401 101.206 112.864 100.349 2 2 2 0.0161687 0.0280368 -0.0228712 -10.3262 -0.16954 -3.23931 
2486 156 2 12.01 0.11 7.20417 16.5222 1.78148 7.20417 16.5222 50.9638 0 0 1 -0.00594575 0.00227451 0.000633149 24.6629 42.0741 -0.303683 
7148 447 3 1.008 0.03 0.414852 14.2549 6.48728 -97.9498 14.2549 6.48728 -2 0 0 0.00711048 -0.0214666 -0.00260006 17.4088 2.70342 17.6846 
5991 375 3 1.008 0.03 10.8955 14.1559 0.736842 10.8955 14.1559 0.736842 0 0 0 -0.0101912 -0.00390754 0.0193622 2.1199 -10.1767 7.47344 
5987 375 2 12.01 0.14 11.589 14.9833 0.759846 11.589 14.9833 0.759846 0 0 0 -0.000727083 -0.0112143 -0.000770268 -16.0412 4.10541 -9.8098 
5997 375 3 1.008 0.03 14.1427 15.3448 1.12818 14.1427 15.3448 1.12818 0 0 0 0.0220786 0.0108796 0.0267286 -1.06328 10.2904 -5.31685 
1327 83 3 1.008 0.03 14.2716 10.7464 0.500379 63.454 10.7464 0.500379 1 0 0 0.0273319 0.00565748 0.00451228 -5.25962 0.223637 -2.87781 
2747 172 3 1.008 0.03 15.287 9.24119 5.33605 15.287 9.24119 54.5184 0 0 1 0.0120269 -0.0096579 2.71687e-05 12.8228 -3.95984 -7.98044 
2749 172 3 1.008 0.03 16.2076 9.67529 3.83379 16.2076 9.67529 53.0161 0 0 1 0.00791105 -0.00116069 0.00538361 3.6456 -8.67875 2.33127 
871 55 3 1.008 0.03 9.31139 12.2761 5.27516 -39.871 -36.9062 5.27516 -1 -1 0 -0.0130589 -0.00934844 -0.00361298 -16.8823 3.91464 14.8031 
2491 156 3 1.008 0.03 8.98388 10.5029 1.66764 8.98388 10.5029 50.85 0 0 1 0.0115759 0.00613054 0.0162553 -16.0145 -6.95517 -11.6371 
872 55 3 1.008 0.03 8.6117 13.9131 5.77309 -40.5707 -35.2693 5.77309 -1 -1 0 0.0296257 -0.0277866 -0.0153812 6.12088 -12.0854 -13.4227 
867 55 2 12.01 0.14 9.43914 13.1852 5.88922 -39.7432 -35.9972 5.88922 -1 -1 0 -0.00705931 -8.34711e-05 -0.00796399 10.5466 6.33521 -9.28973 
2485 156 2 12.01 0.11 9.57167 11.3954 1.63157 9.57167 11.3954 50.8139 0 0 1 -0.000598623 0.00196982 -0.00379978 24.0017 23.406 37.2089 
2492 156 3 1.008 0.03 10.459 11.2906 1.04121 10.459 11.2906 50.2236 0 0 1 -0.0078688 0.00574598 -0.00434803 -0.669671 -4.86298 -20.0678 
2481 156 1 16 -0.4 8.93471 12.6774 1.39191 8.93471 12.6774 50.5743 0 0 1 0.00198001 0.00313827 -0.000345665 -9.37688 -12.4337 27.1685 
2493 156 3 1.008 0.03 10.1061 11.3478 2.60835 10.1061 11.3478 51.7907 0 0 1 0.0134017 0.0130337 -0.00808818 -20.8534 13.7456 -9.17493 
2490 156 3 1.008 0.03 8.9044 14.7759 2.93565 8.9044 14.7759 52.118 0 0 1 0.0132844 0.0110571 -0.00627509 -18.6176 -11.3387 -14.6198 
1840 115 3 1.008 0.03 11.2802 11.1614 6.71638 11.2802 11.1614 -140.831 0 0 -3 0.00474354 0.00446847 -0.0149662 -10.3102 4.75116 16.835 
1830 115 2 12.01 0.11 11.2422 10.1134 6.47992 11.2422 10.1134 -141.067 0 0 -3 0.00428656 0.00786329 0.00141829 1.16354 0.977186 -52.0744 
1319 83 3 1.008 0.03 13.3839 9.45196 3.78882 62.5663 9.45196 3.78882 1 0 0 0.00245599 -0.0241284 0.010947 17.2287 -9.06682 12.1935 
1321 83 3 1.008 0.03 12.4565 11.7167 2.21725 61.6388 11.7167 2.21725 1 0 0 -0.0329915 0.0294436 0.00298912 17.5899 5.51761 4.31357 
1316 83 2 12.01 0.14 13.3073 11.3066 2.80087 62.4897 11.3066 2.80087 1 0 0 0.00359691 -7.11994e-05 0.000264425 -56.9292 15.6685 17.0063 
1315 83 2 12.01 0.14 13.0321 9.82377 2.85873 62.2144 9.82377 2.85873 1 0 0 -0.0024815 -0.00187564 0.0080786 11.2201 18.9197 30.3774 
1322 83 3 1.008 0.03 13.1603 11.6556 3.83365 62.3427 11.6556 3.83365 1 0 0 0.02221 0.00130802 -0.0248161 1.6713 3.87824 -7.87266 
1313 83 1 16 -0.4 11.6757 9.60753 2.95648 60.858 9.60753 2.95648 1 0 0 -0.00478681 0.0038773 -0.00433807 -23.8272 11.5017 -14.8653 
1314 83 1 16 -0.4 14.5282 11.7785 2.35398 63.7105 11.7785 2.35398 1 0 0 0.000538295 0.00380564 -0.00171366 28.2638 -7.44908 -54.2406 
1320 83 3 1.008 0.03 13.5315 9.35272 2.09972 62.7139 9.35272 2.09972 1 0 0 0.00210534 0.0258013 0.0146177 13.9025 -27.1999 -35.3917 
878 55 3 1.008 0.03 12.0906 16.6723 5.23487 -37.0917 -32.51 5.23487 -1 -1 0 -0.0180104 -0.0165952 -0.02183 15.8769 -16.3842 -6.03975 
879 55 3 1.008 0.03 12.9855 15.1369 5.42078 -36.1969 -34.0454 5.42078 -1 -1 0 -0.012191 0.00479686 -0.0104747 27.1822 -13.094 15.7356 
868 55 2 12.01 0.14 10.7719 13.6887 5.23778 -38.4104 -35.4936 5.23778 -1 -1 0 0.00807333 0.00628943 -0.00679446 3.92173 7.06215 -48.0497 
866 55 1 16 -0.4 10.9324 15.1387 5.31652 -38.25 -34.0436 5.31652 -1 -1 0 0.00410743 0.00786512 -0.00574768 -14.8638 -34.9573 -2.52093 
870 55 2 12.01 0.11 12.2023 15.6055 4.91991 -36.9801 -33.5769 4.91991 -1 -1 0 -0.000194984 -0.0010489 -0.000481633 -39.7491 43.6572 -37.568 
880 55 3 1.008 0.03 12.3405 15.6112 3.79633 -36.8418 -33.5711 3.79633 -1 -1 0 -0.00577587 -0.0127791 -0.0057743 -0.765541 -4.76652 32.6141 
1839 115 3 1.008 0.03 10.3794 9.89649 5.78435 10.3794 9.89649 -141.763 0 0 -3 -0.000211359 0.00363234 -0.014956 22.0764 14.8999 9.82875 
874 55 3 1.008 0.03 10.8066 13.3075 4.1125 -38.3757 -35.8748 4.1125 -1 -1 0 0.0191482 -0.00149681 0.0117528 -0.0298826 26.5361 60.7892 
5992 375 3 1.008 0.03 11.8264 15.2219 1.80069 11.8264 15.2219 1.80069 0 0 0 0.000474693 -0.00131705 0.00265986 1.33312 -4.36881 -6.25537 
10154 638 8 19 -0.16 16.345 14.1155 6.63327 16.345 14.1155 55.8156 0 0 1 0.00144658 0.000173151 0.00056887 -4.27072 -17.465 -8.61226 
4957 310 3 1.008 0.03 16.2778 14.0952 3.16487 65.4601 14.0952 3.16487 1 0 0 -0.0226461 -0.0154234 0.00188564 -30.1649 20.1477 -3.01542 
4955 310 3 1.008 0.03 16.7376 12.3784 2.90797 65.9199 12.3784 2.90797 1 0 0 -0.024306 0.024697 -0.0165574 -11.6619 7.14543 12.907 
10152 638 8 19 -0.16 16.2492 16.2153 6.34689 16.2492 16.2153 55.5292 0 0 1 0.0023988 0.00670866 -0.0011162 12.2152 -8.59168 -5.133 
2748 172 3 1.008 0.03 15.309 10.765 4.68724 15.309 10.765 53.8696 0 0 1 0.0183848 -0.00811063 -0.0181726 3.8692 24.8146 10.2128 
2741 172 2 12.01 0.11 15.9815 9.95557 4.86041 15.9815 9.95557 54.0428 0 0 1 -0.00371465 0.000752859 0.00146077 -9.01129 -15.8522 -3.02874 
10104 635 6 16 -0.53 16.5857 9.069 1.17133 114.95 58.2514 1.17133 2 1 0 -0.00027866 -0.00269939 -0.0021248 -19.9908 -3.51677 5.39565 
1318 83 2 12.01 0.11 14.6645 11.6874 0.874383 63.8469 11.6874 0.874383 1 0 0 -0.0047597 -0.000788406 -0.00593815 -32.082 16.2294 37.8216 
873 55 3 1.008 0.03 11.6421 13.2642 5.73232 -37.5403 -35.9181 5.73232 -1 -1 0 -0.00502606 0.0246014 -0.0116051 -1.71187 -7.61038 1.85249 
1326 83 3 1.008 0.03 15.6607 11.6995 0.505561 64.8431 11.6995 0.505561 1 0 0 0.022587 0.0208205 0.0074721 18.0621 6.28278 2.57888 
1838 115 3 1.008 0.03 12.2093 10.0143 5.92539 12.2093 10.0143 -141.622 0 0 -3 0.0172326 0.0180064 -0.0217581 -17.7538 -5.08512 8.17662 
1328 83 3 1.008 0.03 14.126 12.5535 0.416969 63.3083 12.5535 0.416969 1 0 0 -0.00343002 -0.0274633 0.000947875 7.85275 -18.8547 4.748 
2743 172 3 1.008 0.03 16.3299 11.016 7.26407 16.3299 11.016 56.4464 0 0 1 -0.00785874 0.00568552 -0.0203236 0.423263 3.1653 -5.3154 
865 55 1 16 -0.4 9.49954 12.8763 7.28966 -39.6828 -36.306 7.28966 -1 -1 0 -0.0005605 -0.00441163 0.00625963 15.6977 -2.85334 -29.5671 
2744 172 3 1.008 0.03 16.3359 9.33048 7.21125 16.3359 9.33048 56.3936 0 0 1 0.0115256 0.0084905 0.000989395 0.455222 -16.4647 14.2038 
5994 375 3 1.008 0.03 9.82427 16.0942 0.549667 9.82427 16.0942 0.549667 0 0 0 -0.0111371 -0.00803175 0.0104871 -28.6403 -1.42141 13.6977 
3531 221 3 1.008 0.03 24.2533 9.53707 0.676554 24.2533 9.53707 49.8589 0 0 1 -0.00178503 -0.00779448 0.00556398 8.11798 -4.51208 7.93508 
9275 580 3 1.008 0.03 24.7889 14.2559 1.58667 123.154 63.4382 -47.5957 2 1 -1 -0.00902591 0.000793097 0.0346254 -16.2568 -22.9459 -21.5865 
3527 221 3 1.008 0.03 23.1547 12.7027 0.998601 23.1547 12.7027 50.1809 0 0 1 0.00623035 0.0198192 0.0119937 -2.449 6.97525 2.6663 
10107 635 8 19 -0.16 18.8878 9.00578 2.99866 117.252 58.1881 2.99866 2 1 0 0.00310626 -0.00240556 0.00258036 5.32953 -3.63634 -2.66326 
162 11 1 16 -0.4 23.7893 11.9387 6.8613 122.154 61.121 105.226 2 1 2 9.054e-06 -0.000591578 -0.00225599 -2.58847 -22.0675 -11.5907 
174 11 3 1.008 0.03 22.3099 10.3624 6.67392 120.675 59.5447 105.039 2 1 2 0.0126296 0.0343488 0.00196771 14.2595 11.5908 4.95681 
4950 310 2 12.01 0.11 21.4654 15.2826 0.995495 70.6477 15.2826 0.995495 1 0 0 -0.00268801 -0.00586621 -0.0023455 18.7631 -2.5715 14.7024 
2588 162 3 1.008 0.03 22.8809 9.07539 3.8857 22.8809 9.07539 53.068 0 0 1 -0.0140146 0.0223429 0.0158991 -2.24394 31.1576 -11.0141 
10108 635 8 19 -0.16 19.3543 10.1902 1.33594 117.719 59.3725 1.33594 2 1 0 -0.00595697 0.00113637 0.00897138 10.8998 14.4723 -3.74563 