ITEM: TIMESTEP
3250000
ITEM: NUMBER OF ATOMS
10479
ITEM: BOX BOUNDS pp pp pp
4.0882558190751794e-01 4.9591174418091420e+01
4.0882558190751794e-01 4.9591174418091420e+01
4.0882558190751794e-01 4.9591174418091420e+01
ITEM: ATOMS id mol type mass q x y z xu yu zu ix iy iz vx vy vz fx fy fz 
7930 496 3 1.008 0.03 0.793073 0.935671 1.25846 0.793073 0.935671 50.4408 0 0 1 0.00083227 -0.00971378 -0.00228878 -7.02375 -7.46679 -3.03067 
10119 636 6 16 -0.53 4.06699 3.84837 1.997 4.06699 3.84837 51.1793 0 0 1 0.00178069 0.00158549 -0.00204679 4.30168 17.804 -13.5087 
7927 496 3 1.008 0.03 2.69312 1.73876 2.8345 2.69312 1.73876 52.0168 0 0 1 0.00600125 -0.0132491 0.0156801 -32.8694 5.55499 5.55608 
7931 496 3 1.008 0.03 3.01271 2.65492 4.81806 3.01271 2.65492 54.0004 0 0 1 0.0117886 -0.0170369 0.0183937 -7.47422 9.91863 -6.48701 
10118 636 5 32.06 1.02 3.45699 4.72083 1.00551 3.45699 4.72083 50.1879 0 0 1 0.00207923 0.00552516 0.00512435 -17.7852 0.0958476 29.8474 
10117 636 4 14.01 -0.66 1.97577 5.14573 1.37476 1.97577 5.14573 50.5571 0 0 1 0.000876001 9.31521e-05 0.00490306 6.42552 2.22113 11.3844 
10126 636 6 16 -0.53 2.27542 5.65998 3.95734 2.27542 5.65998 53.1397 0 0 1 -0.000148432 -0.00105303 -0.00593472 -12.4417 -1.53811 -42.6589 
10121 636 7 12.01 0.35 4.22657 6.36823 1.10053 4.22657 6.36823 50.2829 0 0 1 -0.000826792 0.00192456 0.00507451 -33.2356 -10.1366 6.86055 
7933 496 3 1.008 0.03 2.01775 1.83949 5.81957 2.01775 1.83949 55.0019 0 0 1 -0.0105476 0.0217884 -0.00236034 -12.4259 -9.29229 7.03445 
7925 496 2 12.01 0.11 1.95871 2.65936 5.12977 1.95871 2.65936 54.3121 0 0 1 0.000804359 0.00707733 0.00457232 31.3265 -1.40086 3.67956 
10125 636 5 32.06 1.02 1.40121 5.62889 2.77407 1.40121 5.62889 51.9564 0 0 1 0.00060981 0.00409408 -0.000995102 69.1985 -15.0331 25.9254 
5407 338 3 1.008 0.03 5.27069 2.15197 3.81149 54.453 100.517 3.81149 1 2 0 0.0120307 0.00477951 -0.00169669 11.6485 -18.8003 -8.483 
5406 338 3 1.008 0.03 5.00872 1.29526 2.32152 54.1911 99.66 2.32152 1 2 0 -0.00235886 0.00908013 0.0265067 -11.0044 -4.69641 -17.6576 
5398 338 2 12.01 0.11 5.25667 1.1349 3.34253 54.439 99.4996 3.34253 1 2 0 -0.00703178 -0.00113306 0.000360784 -19.3404 21.6676 32.3158 
10123 636 8 19 -0.16 5.50686 6.40057 0.926986 5.50686 6.40057 50.1093 0 0 1 -0.00347791 0.00301354 -0.00618471 29.7045 -2.95513 -1.532 
7932 496 3 1.008 0.03 1.79508 3.59876 5.67003 1.79508 3.59876 54.8524 0 0 1 0.000112918 -0.0123344 0.00163937 -2.16736 -5.59764 -0.516208 
7921 496 1 16 -0.4 1.03414 2.45239 4.07503 1.03414 2.45239 53.2574 0 0 1 -0.00112149 0.000254574 -0.00446857 -5.29711 7.92891 -3.69732 
7923 496 2 12.01 0.14 1.58129 1.63563 3.0325 1.58129 1.63563 52.2148 0 0 1 0.00204753 0.00225853 -0.00222614 37.9218 -5.98927 8.05858 
7929 496 3 1.008 0.03 1.40517 2.50595 1.10925 1.40517 2.50595 50.2916 0 0 1 0.0135435 -0.017173 0.000707375 -7.80585 2.60168 6.48679 
5068 317 3 1.008 0.03 8.23772 2.58495 1.81501 8.23772 100.95 1.81501 0 2 0 -0.00457499 -0.00757063 -0.0113215 2.37221 10.3382 -35.1672 
10124 636 8 19 -0.16 3.92963 6.99847 2.21217 3.92963 6.99847 51.3945 0 0 1 0.00109808 -0.00475395 -0.00229237 10.1356 1.42134 12.5386 
4284 268 3 1.008 0.03 7.16894 8.00399 2.05832 154.716 -41.1784 -47.124 3 -1 -1 -0.0148921 -0.0106717 0.0181465 -9.44096 -22.3299 -16.7737 
782 49 3 1.008 0.03 6.25896 5.44856 6.29687 104.624 103.813 104.662 2 2 2 -0.0187737 0.000227946 0.00550192 -26.2917 -31.5747 25.0851 
774 49 2 12.01 0.11 5.65922 4.66604 6.90973 104.024 103.031 105.274 2 2 2 -0.00410669 -0.00018757 0.00301736 28.0817 33.2787 -9.67329 
5061 317 2 12.01 0.11 8.01527 2.70872 0.701518 8.01527 101.073 0.701518 0 2 0 0.00998062 0.00472836 0.00253779 -13.1611 1.91784 66.9492 
5069 317 3 1.008 0.03 7.86301 3.72705 0.432598 7.86301 102.092 0.432598 0 2 0 -0.00630156 -0.00437482 -0.0182494 4.63428 17.882 -1.69664 
10128 636 7 12.01 0.35 1.05858 7.37296 2.48681 1.05858 7.37296 51.6692 0 0 1 -0.00468026 -0.0109975 -0.00387064 -28.6204 -5.37817 29.8768 
5408 338 3 1.008 0.03 6.1828 0.621392 3.38048 55.3652 98.9861 3.38048 1 2 0 0.00587163 -0.0136779 -0.0112395 24.262 -0.177104 1.10095 
4285 268 3 1.008 0.03 8.35893 7.83457 3.38179 155.906 -41.3478 -45.8006 3 -1 -1 -0.00679846 0.0481907 -0.00803021 -26.8623 0.492313 -8.30923 
773 49 2 12.01 0.11 8.19387 1.41568 6.7187 106.559 99.7804 105.083 2 2 2 0.00162784 0.00244238 0.00356801 23.8884 -31.6372 -10.9366 
780 49 3 1.008 0.03 8.42078 2.41127 7.0604 106.785 100.776 105.425 2 2 2 -0.018403 -0.00589333 0.000377213 -12.7989 11.4617 -0.0363521 
779 49 3 1.008 0.03 8.19925 1.3111 5.60419 106.564 99.6758 103.969 2 2 2 -0.0254314 -0.0288147 0.0074796 -7.85021 6.02193 19.0399 
770 49 1 16 -0.4 5.98504 3.33999 6.45029 104.35 101.705 104.815 2 2 2 0.00802062 0.00704353 0.000156475 -3.56813 17.5143 43.8891 
10131 636 8 19 -0.16 0.573787 7.92192 3.60546 0.573787 7.92192 52.7878 0 0 1 0.00158549 -0.00163535 0.00120386 -2.1155 1.06942 -15.7409 
769 49 1 16 -0.4 7.1798 0.687294 7.41123 105.544 99.052 105.776 2 2 2 0.00355957 -0.0028386 0.0104045 -4.30946 12.1325 -14.2999 
10129 636 8 19 -0.16 2.05778 8.08381 2.1304 2.05778 8.08381 51.3127 0 0 1 -0.00118293 0.00583666 -0.000757438 38.3201 16.1423 -3.93728 
4277 268 2 12.01 0.11 7.33391 8.20386 3.08375 154.881 -40.9785 -46.0986 3 -1 -1 0.00321387 -0.00025956 0.00394711 44.7929 -5.82058 29.5609 
4283 268 3 1.008 0.03 6.60241 7.73194 3.77793 154.149 -41.4504 -45.4044 3 -1 -1 0.0125112 -0.00300712 0.036051 1.17683 17.1878 -11.7727 
5067 317 3 1.008 0.03 7.04144 2.28706 0.672399 7.04144 100.652 0.672399 0 2 0 -0.0239798 0.014298 -0.0105275 -18.3753 -7.02869 -9.96305 
775 49 3 1.008 0.03 5.658 0.873758 5.8927 104.023 99.2385 104.257 2 2 2 0.0175168 0.0133344 0.00261604 13.8941 6.23826 26.621 
771 49 2 12.01 0.14 5.86432 1.04797 6.97523 104.229 99.4127 105.34 2 2 2 0.00134935 0.000253099 0.0074281 -6.69194 -17.4342 6.4736 
7924 496 2 12.01 0.14 0.810321 1.87773 1.79012 0.810321 1.87773 50.9725 0 0 1 0.00573594 0.00101529 -0.00989062 3.72621 15.126 -14.5608 
7928 496 3 1.008 0.03 1.47682 0.580845 3.22291 1.47682 0.580845 52.4053 0 0 1 -0.0118381 0.0233854 0.011756 -4.05701 -6.05965 13.3173 
783 49 3 1.008 0.03 4.6023 4.79592 6.7122 102.967 103.161 105.077 2 2 2 0.00200516 -0.00496213 -0.0163061 -4.39148 6.20251 -3.28963 
777 49 3 1.008 0.03 4.43873 2.51866 7.40025 102.803 100.883 105.765 2 2 2 0.0101878 -0.0244112 -0.0204415 -32.2616 2.70464 7.55596 
136 9 3 1.008 0.03 10.8904 4.95132 0.560123 -38.292 103.316 -48.6222 -1 2 -1 -0.0200508 0.00914611 0.0150048 -13.4679 -0.83335 -18.2731 
421 27 2 12.01 0.11 15.5723 1.12475 5.41805 15.5723 50.3071 54.6004 0 1 1 -0.00668273 -0.00118733 -0.00447071 16.7863 21.1437 6.01435 
427 27 3 1.008 0.03 15.0214 1.47368 6.32334 15.0214 50.656 55.5057 0 1 1 0.00426104 0.0119418 -0.0311885 4.36916 -4.8736 -18.0447 
4364 273 3 1.008 0.03 11.1424 5.32164 4.00682 60.3248 5.32164 200.736 1 0 4 -0.0121736 -0.00453165 -0.00898071 -11.5004 6.37641 10.2792 
4357 273 2 12.01 0.11 10.6338 5.65622 4.93929 59.8161 5.65622 201.669 1 0 4 -0.000321689 -0.000148946 0.00815023 6.49308 -7.38447 -31.4304 
4353 273 1 16 -0.4 11.4532 6.60059 5.54125 60.6355 6.60059 202.271 1 0 4 0.0031747 -0.00621377 0.000942895 24.3819 -4.01856 27.1251 
4361 273 3 1.008 0.03 11.2518 7.69044 3.15451 60.4342 7.69044 199.884 1 0 4 0.00764822 -0.0322562 0.00284653 -12.5445 2.63917 5.50679 
4356 273 2 12.01 0.14 11.5321 8.43821 3.90308 60.7144 8.43821 200.632 1 0 4 -0.000944709 0.0143579 -0.00251992 -58.0512 26.7414 -19.0067 
419 27 2 12.01 0.14 16.5888 3.24987 5.18426 16.5888 52.4322 54.3666 0 1 1 -0.00920241 -0.00276255 -0.0029758 10.2355 15.7311 -3.78248 
420 27 2 12.01 0.14 16.5616 3.83406 6.63109 16.5616 53.0164 55.8134 0 1 1 -0.00176254 -0.00191584 0.0044859 -16.8397 -57.0478 1.29593 
4358 273 2 12.01 0.11 13.6832 7.68868 3.34363 62.8656 7.68868 200.073 1 0 4 0.00479701 -0.000811065 0.00187355 16.5981 -32.9594 -10.4158 
8788 550 2 12.01 0.14 11.6698 1.42018 2.59855 -86.6949 198.15 51.7809 -2 4 1 0.00346817 -0.000777083 0.000787374 14.2763 -32.6467 -6.26105 
8790 550 2 12.01 0.11 13.4342 2.40888 1.49159 -84.9305 199.138 50.6739 -2 4 1 -0.0031759 0.00463549 -0.00012821 16.1062 -19.1751 -13.2302 
8794 550 3 1.008 0.03 11.2109 2.28728 2.91938 -87.1538 199.017 52.1017 -2 4 1 -0.00570956 -0.0173676 0.00969377 -14.4891 37.4759 7.56461 
8786 550 1 16 -0.4 13.0636 1.54843 2.55233 -85.3011 198.278 51.7347 -2 4 1 -0.00754691 -0.0011099 -0.000160615 12.0892 8.82042 -7.01049 
8798 550 3 1.008 0.03 14.5044 2.69089 1.50657 -83.8603 199.42 50.6889 -2 4 1 0.0252533 -0.0121712 -0.00914607 -17.3859 -1.86254 6.68981 
425 27 3 1.008 0.03 16.1315 4.75639 6.50924 16.1315 53.9387 55.6916 0 1 1 0.00332122 0.017204 -0.00019181 -17.7131 41.9015 2.44037 
8800 550 3 1.008 0.03 12.8563 3.29171 1.55013 -85.5084 200.021 50.7325 -2 4 1 0.0071181 0.00282027 -0.0203931 -8.62156 22.9472 -1.12672 
8799 550 3 1.008 0.03 13.2036 1.91657 0.524221 -85.1611 198.646 49.7066 -2 4 1 0.00058348 0.0340732 -0.0056898 5.79784 7.33248 9.21152 
4366 273 3 1.008 0.03 13.334 7.1026 2.48087 62.5163 7.1026 199.21 1 0 4 -0.0177359 0.041216 0.0164681 0.167907 3.61082 5.06293 
4363 273 3 1.008 0.03 9.69275 6.11665 4.70453 58.8751 6.11665 201.434 1 0 4 0.0161812 -0.0283389 0.0194797 -13.4329 -1.83923 -3.25358 
4355 273 2 12.01 0.14 11.264 7.98574 5.33918 60.4464 7.98574 202.069 1 0 4 0.000736213 3.45197e-05 -0.00335883 -21.7693 -16.5255 -33.1736 
4368 273 3 1.008 0.03 13.725 6.99652 4.20048 62.9073 6.99652 200.93 1 0 4 -0.0185365 -0.0220511 -0.0152062 3.34959 7.02414 -4.66437 
4367 273 3 1.008 0.03 14.701 8.01607 3.0599 63.8834 8.01607 199.789 1 0 4 0.00702282 -0.00789818 -0.0195357 -9.41171 -0.779475 8.41871 
781 49 3 1.008 0.03 9.11051 0.896959 7.01636 107.475 99.2617 105.381 2 2 2 0.0179212 0.0148478 0.0212835 -2.79207 0.92661 -3.35359 
426 27 3 1.008 0.03 15.836 3.21839 7.26941 15.836 52.4007 56.4518 0 1 1 0.000352929 -0.00306434 0.00338307 31.3318 23.0033 -11.967 
424 27 3 1.008 0.03 15.7217 3.62654 4.57402 15.7217 52.8089 53.7564 0 1 1 0.010206 -0.000178734 0.0133406 17.6374 -12.1714 9.67091 
4360 273 3 1.008 0.03 11.9756 8.43756 5.94699 61.1579 8.43756 202.676 1 0 4 0.0124492 0.0200534 0.0115457 14.8119 22.6 25.5677 
8785 550 1 16 -0.4 11.9242 0.793174 4.99001 -86.4405 197.523 54.1724 -2 4 1 -0.00231601 -0.00144211 -0.00528661 4.9462 -9.25994 9.85033 
4365 273 3 1.008 0.03 10.4902 4.75575 5.53612 59.6726 4.75575 202.266 1 0 4 0.00555296 -0.00299139 -0.00744047 -0.978982 3.77328 2.96627 
8793 550 3 1.008 0.03 11.3086 1.21735 1.5575 -87.0561 197.947 50.7398 -2 4 1 -0.000506072 -0.00149145 0.00675717 -3.56216 -9.97648 24.0269 
476 30 3 1.008 0.03 16.3654 7.67832 5.44205 65.5477 56.8607 54.6244 1 1 1 -0.007265 0.00279065 0.013136 -8.66211 -2.27656 6.88345 
417 27 1 16 -0.4 16.7762 1.85634 5.13884 16.7762 51.0387 54.3212 0 1 1 0.0026811 0.00162459 -0.000173203 -19.2898 -10.333 13.5645 
428 27 3 1.008 0.03 14.9794 1.13061 4.50681 14.9794 50.313 53.6892 0 1 1 0.00807226 0.00653839 -0.0157927 -9.22541 -1.75358 2.94248 
4359 273 3 1.008 0.03 10.2358 8.29182 5.5781 59.4181 8.29182 202.307 1 0 4 0.00371262 -0.000202696 0.00989573 7.1429 -2.86486 8.78555 
9763 612 8 19 -0.16 15.9874 1.82668 0.463205 -33.195 51.009 0.463205 -1 1 0 0.00100792 -0.000906609 0.0018328 9.27818 -1.48558 0.326816 
138 9 3 1.008 0.03 8.90098 6.51879 0.755732 -40.2814 104.883 -48.4266 -1 2 -1 0.0177275 0.0328257 0.0255114 23.1935 4.70674 -15.933 
8108 507 3 1.008 0.03 12.0085 3.54752 7.12817 61.1908 3.54752 105.493 1 0 2 -0.0011906 0.0140256 0.00492043 -6.87304 -3.22234 7.05951 
2024 127 3 1.008 0.03 24.5491 2.75276 6.12598 -24.6333 51.9351 6.12598 -1 1 0 -0.00135606 -0.00653127 -0.0102594 -1.44004 -3.16934 1.79095 
423 27 3 1.008 0.03 17.5356 3.55765 4.71344 17.5356 52.74 53.8958 0 1 1 0.01318 0.0158782 -0.00347145 -12.1888 9.98441 -0.885966 
2018 127 1 16 -0.4 22.2899 0.713656 4.91709 -26.8925 49.896 4.91709 -1 1 0 0.00769711 0.00410381 -0.00317399 -6.86247 -19.0037 18.7919 
2032 127 3 1.008 0.03 22.1457 0.621332 2.78706 -27.0367 49.8037 2.78706 -1 1 0 -0.032586 0.00696269 -0.0214307 16.0533 -7.9806 4.10827 
480 30 3 1.008 0.03 18.9734 6.98889 0.944072 68.1557 56.1712 50.1264 1 1 1 -0.00701153 -0.00237291 -0.00711375 31.9647 -13.2376 0.819607 
470 30 2 12.01 0.11 18.0482 7.42412 0.748707 67.2305 56.6065 49.9311 1 1 1 0.00306661 -0.00268321 -0.00484905 -42.9226 -20.827 -9.90048 
477 30 3 1.008 0.03 17.2703 6.73253 4.37021 66.4527 55.9149 53.5526 1 1 1 -0.00168555 0.0187702 -0.00400844 9.91196 -1.00669 -6.18459 
9764 612 8 19 -0.16 17.0317 3.41552 1.45751 -32.1507 52.5979 1.45751 -1 1 0 0.0015774 -0.000199064 -0.00439509 -8.26854 10.0158 9.08951 
469 30 2 12.01 0.11 17.3786 7.37429 5.2368 66.561 56.5566 54.4191 1 1 1 -0.00381993 -0.00220826 0.000639487 -15.2533 4.3599 -1.15041 
475 30 3 1.008 0.03 17.7437 6.79366 6.09169 66.9261 55.976 55.274 1 1 1 0.0151099 -0.00949008 0.0148631 0.967916 3.35378 -3.55012 
6543 409 3 1.008 0.03 19.7119 2.41334 1.94577 118.077 2.41334 51.1281 2 0 1 -0.00106332 -0.0172173 -0.0131549 -19.6427 -19.0211 -4.97816 
8456 529 3 1.008 0.03 24.2237 7.13426 4.09743 73.4061 56.3166 102.462 1 1 2 0.00924452 -0.00917727 0.0317413 9.3995 3.04296 -11.5941 
6537 409 3 1.008 0.03 23.595 2.89646 1.09233 121.96 2.89646 50.2747 2 0 1 0.0107513 0.0017258 -0.00103748 6.04903 6.23936 3.86044 
8457 529 3 1.008 0.03 22.0819 6.97745 5.12241 71.2642 56.1598 103.487 1 1 2 -0.00985083 -0.0195913 -0.0207045 15.0125 -14.9664 -11.9953 
6542 409 3 1.008 0.03 20.1337 3.90632 1.0654 118.498 3.90632 50.2477 2 0 1 0.00398294 -0.00891736 -0.0119418 -3.20011 -8.98366 5.9067 
8464 529 3 1.008 0.03 20.2689 4.33778 5.2048 69.4513 53.5201 103.569 1 1 2 -0.00851979 0.0281617 0.0200054 9.90538 -0.84935 2.46937 
2026 127 3 1.008 0.03 23.7152 1.7107 3.98015 -25.4671 50.893 3.98015 -1 1 0 0.00377772 0.00724728 0.00478369 -1.91358 10.899 26.4268 
8452 529 2 12.01 0.14 22.6025 6.02979 4.81251 71.7848 55.2121 103.177 1 1 2 0.00366977 -0.000827842 0.00631853 6.39934 11.6012 -22.5471 
8458 529 3 1.008 0.03 22.1672 5.69489 3.8196 71.3496 54.8772 102.184 1 1 2 0.00286282 -0.0126756 0.0278421 14.5344 12.2805 23.6981 
8451 529 2 12.01 0.14 24.1881 6.27092 4.74103 73.3704 55.4533 103.106 1 1 2 0.0049488 0.00183524 -0.00297122 -61.8457 18.5184 8.74862 
8449 529 1 16 -0.4 24.8478 5.17779 4.14113 74.0301 54.3601 102.506 1 1 2 -0.000169071 0.00156668 0.00135278 7.56806 10.8702 -2.39631 
474 30 3 1.008 0.03 19.2899 8.40528 2.95534 68.4723 57.5876 52.1377 1 1 1 -0.00797317 0.00393715 0.0299462 -4.69115 7.93403 -10.3968 
6534 409 2 12.01 0.11 20.4209 3.17936 1.84427 118.786 3.17936 51.0266 2 0 1 -0.00683432 -0.00515669 -0.00185987 20.8536 36.7025 30.4932 
6530 409 1 16 -0.4 21.7036 2.61103 1.62899 120.068 2.61103 50.8113 2 0 1 -0.00446644 0.000154472 0.0037192 -9.43073 0.668498 -15.9406 
466 30 1 16 -0.4 17.5247 7.89685 1.95273 66.7071 57.0792 51.1351 1 1 1 0.000988211 -0.00370967 -0.00508953 -16.7087 6.9719 36.6556 
6538 409 3 1.008 0.03 22.9844 3.85739 2.49549 121.349 3.85739 51.6778 2 0 1 -0.00111391 0.00369674 -0.014136 10.528 -1.44957 -1.19017 
6544 409 3 1.008 0.03 20.4023 3.66565 2.85916 118.767 3.66565 52.0415 2 0 1 -0.0108952 0.00617093 -0.00359346 2.12885 -4.07031 -24.8569 
6532 409 2 12.01 0.14 22.7863 3.51826 1.48008 121.151 3.51826 50.6624 2 0 1 0.00481649 -0.00133128 -0.00211333 -6.19093 -9.67175 20.957 
2020 127 2 12.01 0.14 23.0347 1.92265 4.8531 -26.1477 51.105 4.8531 -1 1 0 -0.00736204 -0.00162181 0.00161173 23.8848 -27.8316 -43.6076 
2025 127 3 1.008 0.03 22.5302 2.81059 4.54598 -26.6522 51.9929 4.54598 -1 1 0 -0.000198022 -0.0186842 0.0223956 -16.6556 10.7751 3.16115 
8462 529 3 1.008 0.03 20.7975 4.56262 6.86836 69.9798 53.745 105.233 1 1 2 -0.0139672 -0.0187196 -0.0104027 -16.4136 -25.8034 43.7145 
2019 127 2 12.01 0.14 23.7317 2.02342 6.19149 -25.4506 51.2058 6.19149 -1 1 0 0.00579312 -0.00716622 0.00535957 29.2974 16.2361 -17.94 
8455 529 3 1.008 0.03 24.5567 6.70772 5.68123 73.739 55.8901 104.046 1 1 2 0.0248826 0.00779372 -0.0206899 6.18769 -17.8917 -1.61307 
465 30 1 16 -0.4 18.0686 8.5947 5.05485 67.251 57.7771 54.2372 1 1 1 -0.00729723 -0.00714116 -0.00378495 10.437 25.1607 -20.0303 
8450 529 1 16 -0.4 22.2405 5.07845 5.77912 71.4228 54.2608 104.144 1 1 2 0.00313383 0.00390222 0.00208604 0.197101 -10.386 0.214416 
418 27 1 16 -0.4 17.8822 4.02144 7.12664 17.8822 53.2038 56.309 0 1 1 0.00206737 -0.00427527 0.00630413 1.01662 1.74703 22.5183 
8454 529 2 12.01 0.11 20.8289 4.94645 5.92872 70.0113 54.1288 104.293 1 1 2 0.00209008 0.00396819 -0.00198685 5.78928 43.8333 -32.9828 
2031 127 3 1.008 0.03 20.765 1.00038 3.55537 -28.4174 50.1827 3.55537 -1 1 0 0.00499857 0.00239368 0.00759375 -8.63793 -7.3174 9.57859 
5663 354 3 1.008 0.03 20.3743 1.5173 6.46018 -28.8081 50.6996 6.46018 -1 1 0 -0.00507828 0.015356 -0.00477613 12.8999 -13.5483 17.0345 
2023 127 3 1.008 0.03 23.0229 2.38008 6.89818 -26.1595 51.5624 6.89818 -1 1 0 -0.0144472 -0.000597171 -0.0131341 -7.59719 6.30746 17.1615 
6531 409 2 12.01 0.14 22.5719 4.75394 0.632394 120.937 4.75394 49.8147 2 0 1 0.00814133 0.000840111 0.00028526 12.5141 -1.37314 -5.73624 
10145 637 8 19 -0.16 21.7596 7.63595 2.15125 -27.4228 56.8183 2.15125 -1 1 0 0.00672191 0.00252568 0.00384753 17.7816 -3.1107 -7.74024 
2017 127 1 16 -0.4 24.1663 0.707449 6.48577 -25.016 49.8898 6.48577 -1 1 0 0.00444495 0.00342162 0.00271915 3.17904 -28.0803 8.28847 
8463 529 3 1.008 0.03 20.353 5.9527 5.98043 69.5353 55.1351 104.345 1 1 2 -0.00231403 -0.00376699 -0.0142084 3.28838 -15.8434 0.426986 
10143 637 7 12.01 0.35 22.3911 8.17721 1.09958 -26.7912 57.3596 1.09958 -1 1 0 -0.00402772 -0.0050925 0.000971497 -16.3361 43.481 50.4783 
9762 612 8 19 -0.16 18.1019 1.90654 0.499022 -31.0804 51.0889 0.499022 -1 1 0 -0.00154201 -0.00509407 0.00240168 5.74486 -11.1839 2.16791 
6535 409 3 1.008 0.03 23.5484 5.22405 0.475167 121.913 5.22405 49.6575 2 0 1 -0.000232372 0.000308134 0.0126145 -6.27537 9.66696 10.0873 
6536 409 3 1.008 0.03 21.801 5.41438 1.02421 120.166 5.41438 50.2066 2 0 1 0.0359946 -0.0123139 -0.00902211 4.16609 6.02057 2.97853 
10144 637 8 19 -0.16 23.4615 7.52178 0.828356 -25.7208 56.7041 0.828356 -1 1 0 0.00239003 0.00331256 -0.00429036 22.6755 -32.0772 -4.84138 
1099 69 3 1.008 0.03 6.16509 10.4337 0.889194 55.3474 10.4337 -97.4755 1 0 -2 -0.0437769 -0.0111268 -0.00871444 9.31678 12.5804 -21.8921 
5792 362 3 1.008 0.03 2.99875 15.7146 5.11523 -95.3659 -33.4677 152.662 -2 -1 3 0.0216168 -0.00954769 -0.00319617 19.4416 -2.1224 -10.1823 
5789 362 3 1.008 0.03 4.47865 10.1316 3.16768 -93.886 -39.0507 150.715 -2 -1 3 0.0286987 0.0208058 -0.0216312 8.61075 -29.2894 23.6491 
5781 362 2 12.01 0.11 3.84849 10.7207 2.58948 -94.5162 -38.4616 150.137 -2 -1 3 -0.00723684 -0.00586662 0.00956584 -39.7818 15.8132 3.58312 
5787 362 3 1.008 0.03 2.80643 10.8492 2.98134 -95.5583 -38.3332 150.528 -2 -1 3 0.00960939 -0.00602972 0.0189782 22.2507 -7.38245 1.91352 
5782 362 2 12.01 0.11 3.84165 15.5772 4.38783 -94.5231 -33.6052 151.935 -2 -1 3 0.00168068 -0.00693614 -0.00919894 -43.9206 9.53406 5.51229 
5784 362 3 1.008 0.03 2.77217 12.7396 1.82472 -95.5925 -36.4427 149.372 -2 -1 3 0.00102986 -0.011127 -0.0111943 14.3309 12.4044 10.5181 
4275 268 2 12.01 0.14 7.6084 10.3007 4.22986 155.155 -38.8816 -44.9525 3 -1 -1 0.00302343 -0.00204846 -0.00431956 -46.4228 -35.315 -14.5289 
5777 362 1 16 -0.4 4.53923 11.9111 2.56604 -93.8255 -37.2712 150.113 -2 -1 3 0.00138671 -0.000893514 -0.00537962 9.3271 34.328 -7.40498 
4273 268 1 16 -0.4 7.52214 9.59213 2.98419 155.069 -39.5902 -46.1982 3 -1 -1 -0.00172662 1.69521e-05 0.00467806 -3.73621 28.9243 10.9955 
4281 268 3 1.008 0.03 7.13258 12.2162 3.19001 154.68 -36.9662 -45.9923 3 -1 -1 0.00493256 0.00103004 -0.00987223 13.8723 -16.1582 43.1018 
5779 362 2 12.01 0.14 3.86792 12.9521 1.84547 -94.4968 -36.2303 149.393 -2 -1 3 0.00105867 0.00529905 0.000728832 -49.469 -51.6301 1.19298 
5783 362 3 1.008 0.03 4.00825 12.8449 0.789804 -94.3564 -36.3374 148.337 -2 -1 3 -0.00827311 -0.00438657 -0.00680167 17.1578 3.82908 -7.1655 
4279 268 3 1.008 0.03 6.58905 10.1163 4.66416 154.136 -39.066 -44.5182 3 -1 -1 -0.015245 0.0109551 0.0132007 23.7127 -0.44356 -0.98754 
4282 268 3 1.008 0.03 7.26963 12.1325 5.10373 154.817 -37.0499 -44.0786 3 -1 -1 -0.00785068 -0.00168617 -0.0240536 11.2351 5.36854 -31.8519 
5780 362 2 12.01 0.14 4.15335 14.2808 2.43618 -94.2113 -34.9016 149.983 -2 -1 3 -4.52294e-05 -0.0041215 0.00598574 46.8058 24.4007 -16.2149 
5778 362 1 16 -0.4 3.47018 14.4827 3.59894 -94.8945 -34.6997 151.146 -2 -1 3 0.00136445 -0.000335028 -0.00335562 -34.2049 -12.1788 20.528 
5786 362 3 1.008 0.03 3.89256 15.0563 1.72612 -94.4721 -34.126 149.273 -2 -1 3 -0.00428999 -0.0205916 0.00645968 -1.69851 4.66829 -0.702909 
5785 362 3 1.008 0.03 5.23816 14.3418 2.6286 -93.1265 -34.8405 150.176 -2 -1 3 0.0122556 0.00377524 -0.00219895 -8.6215 1.97096 -2.93689 
2063 129 3 1.008 0.03 8.16516 16.0996 1.57297 57.3475 65.282 50.7553 1 1 1 0.000539503 0.00376148 0.0291237 -4.91155 16.5884 -8.52631 
868 55 2 12.01 0.14 1.73881 10.0954 6.38784 -47.4435 10.0954 6.38784 -1 0 0 0.00438822 -0.00809906 0.00400248 10.8438 -18.8115 -26.4312 
5790 362 3 1.008 0.03 4.69902 15.2769 4.92784 -93.6657 -33.9054 152.475 -2 -1 3 -0.0150551 0.056829 -0.0238599 23.5434 6.00647 10.8038 
878 55 3 1.008 0.03 1.08995 11.7393 4.58801 -48.0924 11.7393 4.58801 -1 0 0 0.0148384 0.00358554 0.0304964 15.3022 16.2037 3.7922 
4280 268 3 1.008 0.03 8.36817 9.85766 4.84593 155.915 -39.3247 -44.3364 3 -1 -1 -0.0108655 -0.0094038 -0.0131082 6.97986 -0.70744 11.2967 
4276 268 2 12.01 0.14 7.7021 11.7965 4.10967 155.249 -37.3859 -45.0727 3 -1 -1 -0.00259192 0.000159074 -0.000367441 -13.0173 30.5577 -16.3982 
5791 362 3 1.008 0.03 3.90304 16.5299 3.84715 -94.4617 -32.6525 151.394 -2 -1 3 -0.00654669 -0.033417 0.00947507 9.62392 -5.55593 0.230872 
2062 129 3 1.008 0.03 7.13008 15.7464 2.90038 56.3124 64.9288 52.0827 1 1 1 -0.0243921 -0.00638005 0.0458132 20.979 3.87911 2.56648 
870 55 2 12.01 0.11 1.80806 12.1365 5.34629 -47.3743 12.1365 5.34629 -1 0 0 0.00110041 0.0012122 0.00362604 -38.7969 -14.3164 -8.017 
873 55 3 1.008 0.03 2.77416 9.94091 6.06937 -46.4082 9.94091 6.06937 -1 0 0 0.00150476 -0.00392029 -0.0405641 0.656052 -3.80597 9.63133 
880 55 3 1.008 0.03 2.79502 11.9983 5.07431 -46.3873 11.9983 5.07431 -1 0 0 0.0159978 -0.00687764 0.0226943 35.5961 -11.0324 -14.9091 
866 55 1 16 -0.4 1.5137 11.4603 6.5264 -47.6686 11.4603 6.5264 -1 0 0 -0.00320364 -0.0001571 0.0022973 -6.55948 6.80527 11.7575 
879 55 3 1.008 0.03 1.75357 13.1845 5.48046 -47.4288 13.1845 5.48046 -1 0 0 -0.0170944 0.0127231 0.00997354 -12.437 21.2516 1.16172 
874 55 3 1.008 0.03 1.17289 9.64064 5.54585 -48.0095 9.64064 5.54585 -1 0 0 0.0127094 -0.00551521 0.000941409 -0.495502 10.5467 12.7166 
3822 239 3 1.008 0.03 6.73039 10.7696 6.90253 6.73039 59.9519 56.0849 0 1 1 -0.00996681 0.0130517 0.0060026 17.2371 -12.622 5.71554 
2054 129 2 12.01 0.11 8.0986 16.2414 2.64026 57.2809 65.4238 51.8226 1 1 1 0.00165452 -0.00271671 0.000124554 -51.5197 3.56583 -16.4985 
7628 477 3 1.008 0.03 7.66036 14.9818 7.08264 7.66036 14.9818 56.265 0 0 1 0.0069632 0.0214089 -0.00829072 6.97783 -10.2771 9.644 
5788 362 3 1.008 0.03 3.74667 10.2712 1.64346 -94.618 -38.9111 149.191 -2 -1 3 0.00651439 -0.00315305 -0.018522 1.942 -9.01788 -24.5924 
3823 239 3 1.008 0.03 5.56506 9.57828 7.30557 5.56506 58.7606 56.4879 0 1 1 4.56212e-05 -0.00688804 -0.0385869 2.35429 -0.907921 -4.08755 
1101 69 3 1.008 0.03 7.35573 11.7476 0.433383 56.5381 11.7476 -97.9313 1 0 -2 -0.00436956 -0.00477442 0.00907086 -15.0876 -17.4412 -14.285 
4354 273 1 16 -0.4 12.8342 8.75626 3.58389 62.0166 8.75626 200.313 1 0 4 -0.00042876 -0.00579141 -0.00102501 18.8565 37.9092 6.90272 
134 9 2 12.01 0.11 10.1527 8.92062 0.702834 -39.0296 107.285 -48.4795 -1 2 -1 -0.00566036 0.000775333 -0.000303136 -18.3908 -12.9096 -42.501 
2064 129 3 1.008 0.03 8.93898 15.6767 2.88691 58.1213 64.859 52.0693 1 1 1 0.0397312 0.016033 0.0107441 18.9094 -14.9479 17.4868 
144 9 3 1.008 0.03 9.47454 8.73819 1.54791 -39.7078 107.103 -47.6344 -1 2 -1 -0.0116449 -0.00736185 -0.00668138 7.30581 13.6913 -3.36496 
2687 168 3 1.008 0.03 14.1075 10.0176 1.72785 -84.2572 10.0176 50.9102 -2 0 1 -0.00993171 0.00202479 -0.0135236 1.26837 9.41575 11.241 
5277 330 3 1.008 0.03 15.2715 14.858 5.84508 64.4539 -34.3243 -43.3373 1 -1 -1 -0.00592781 0.0178597 -0.0258633 0.900586 11.0644 5.47304 
4287 268 3 1.008 0.03 9.20071 11.5455 2.06759 156.748 -37.6368 -47.1148 3 -1 -1 0.00286129 0.0166833 -0.00445281 -1.84198 5.38595 -7.20631 
4274 268 1 16 -0.4 9.07982 12.172 4.02323 156.627 -37.0104 -45.1591 3 -1 -1 -0.000897389 0.00418829 -0.00561012 7.26578 0.887229 -11.5397 
4288 268 3 1.008 0.03 9.15476 13.3091 2.4101 156.702 -35.8733 -46.7722 3 -1 -1 -0.0158688 -0.0248407 0.00487131 -1.08734 25.3753 -21.1763 
4278 268 2 12.01 0.11 9.56136 12.3783 2.67095 157.108 -36.8041 -46.5114 3 -1 -1 0.00376929 -0.00516634 -0.00031514 -9.43901 -46.5551 49.5339 
4286 268 3 1.008 0.03 10.6455 12.286 2.6951 158.193 -36.8963 -46.4872 3 -1 -1 -0.0267492 0.00866997 0.0210602 2.33994 12.9808 -4.04852 
2681 168 3 1.008 0.03 12.5751 11.6598 0.999031 -85.7896 11.6598 50.1814 -2 0 1 -0.0234719 0.0284794 -0.0139233 -17.4822 0.373646 18.7916 
4362 273 3 1.008 0.03 10.8517 9.38112 3.75022 60.034 9.38112 200.48 1 0 4 -0.013059 -0.00563764 -0.000265402 35.7817 -43.1635 1.60944 
142 9 3 1.008 0.03 10.9279 9.64602 0.814228 -38.2545 108.011 -48.3681 -1 2 -1 0.0154786 0.0177444 0.0181241 12.3591 5.7149 21.0485 
5856 366 3 1.008 0.03 11.4307 15.9705 4.68997 11.4307 15.9705 -44.4924 0 0 -1 -0.00464686 -0.0385405 0.0123086 1.2556 0.12931 -2.24625 
5846 366 2 12.01 0.11 10.57 15.8745 5.3424 10.57 15.8745 -43.84 0 0 -1 0.00264914 -0.000881136 0.0087226 32.2493 9.93143 29.0033 
3167 198 3 1.008 0.03 15.6427 12.4549 4.95912 114.007 12.4549 54.1415 2 0 1 -0.0210272 -0.0284843 -0.000216351 4.73034 -13.2737 0.283877 
3158 198 2 12.01 0.11 14.7074 11.9158 4.82011 113.072 11.9158 54.0025 2 0 1 -0.00234952 0.00163655 0.0019927 -18.065 -1.3862 30.5154 
3168 198 3 1.008 0.03 14.7573 10.8417 4.65039 113.122 10.8417 53.8327 2 0 1 0.00462163 0.00371285 0.00385865 9.92491 0.42911 -6.59999 
3156 198 2 12.01 0.14 12.545 11.8472 6.00454 110.91 11.8472 55.1869 2 0 1 -0.00187446 0.00201747 0.00679395 11.0263 36.6968 29.2203 
3161 198 3 1.008 0.03 12.1832 10.9631 5.58572 110.548 10.9631 54.7681 2 0 1 -0.00511097 0.0169125 0.0158445 -0.632933 -24.3251 -28.6212 
4484 281 2 12.01 0.14 13.1642 15.5262 2.20608 111.529 -33.6561 149.753 2 -1 3 -0.00558831 0.00546943 0.00159737 -11.5411 1.0102 18.0546 
3154 198 1 16 -0.4 13.9417 12.0999 6.00266 112.306 12.0999 55.185 2 0 1 -0.000392655 -0.00279616 0.00336057 15.0133 -4.19792 12.3044 
4490 281 3 1.008 0.03 12.869 14.4889 2.39592 111.234 -34.6935 149.943 2 -1 3 0.014168 -0.0132235 -0.018751 -1.36489 3.21175 -1.57982 
4494 281 3 1.008 0.03 15.1899 14.1677 3.02826 113.555 -35.0147 150.575 2 -1 3 0.0433057 0.0226252 -0.0100256 12.7842 15.1072 -6.98884 
3162 198 3 1.008 0.03 12.1777 12.7432 5.47451 110.542 12.7432 54.6569 2 0 1 -0.0168036 -0.000413548 -0.0411622 -10.7993 -11.8468 6.28093 
3166 198 3 1.008 0.03 14.2425 12.4154 4.02855 112.607 12.4154 53.2109 2 0 1 -0.00668674 0.012549 0.00194276 -16.8932 6.92632 -25.3232 
5855 366 3 1.008 0.03 9.73593 15.7671 4.71951 9.73593 15.7671 -44.4628 0 0 -1 -0.012296 0.0234046 -0.00794228 -24.3588 1.7374 -2.62527 
4482 281 1 16 -0.4 14.4377 15.5344 1.64107 112.802 -33.648 149.188 2 -1 3 0.000322698 0.00863046 0.0015629 30.8627 -4.68125 5.12028 
4486 281 2 12.01 0.11 15.4702 15.1446 2.56798 113.835 -34.0378 150.115 2 -1 3 -0.00215449 0.00042436 -0.00120768 -25.9683 17.0969 18.3729 
4481 281 1 16 -0.4 11.0832 15.4935 0.830567 109.448 -33.6888 148.378 2 -1 3 0.00397682 -0.00249209 -0.0059555 -4.51567 -9.21365 0.211496 
4489 281 3 1.008 0.03 13.1532 16.0531 3.18032 111.518 -33.1292 150.727 2 -1 3 0.0107585 -0.0182192 -0.0155121 -0.560433 -3.57663 -12.6215 
5854 366 3 1.008 0.03 10.7006 14.9484 5.90709 10.7006 14.9484 -43.2753 0 0 -1 -0.013391 -0.00949806 0.0101248 -1.11974 0.415974 -3.34044 
4496 281 3 1.008 0.03 15.5974 15.9303 3.36631 113.962 -33.252 150.913 2 -1 3 -0.0168775 0.00371878 0.0296199 -5.73722 -20.2402 -17.9051 
4495 281 3 1.008 0.03 16.4223 15.118 2.06808 114.787 -34.0644 149.615 2 -1 3 0.010871 -0.0204952 -0.0257689 7.33261 -8.44377 -5.28216 
2678 168 2 12.01 0.11 14.7569 10.5602 1.04668 -83.6077 10.5602 50.229 -2 0 1 0.00156192 -0.00763805 -0.000102089 11.4816 4.10971 4.85981 
471 30 3 1.008 0.03 16.5331 9.51178 3.84301 65.7154 58.6941 53.0254 1 1 1 -0.0144917 -0.000832609 -0.00436404 55.4828 1.3879 -2.80555 
2686 168 3 1.008 0.03 15.2335 11.491 1.41124 -83.1312 11.491 50.5936 -2 0 1 -0.00524432 -0.00308251 -0.00670122 -10.9178 -10.0423 5.40318 
5275 330 3 1.008 0.03 14.1525 15.8124 7.01767 63.3348 -33.37 -42.1647 1 -1 -1 -0.00716049 0.0113213 -0.00528398 21.3051 -7.71651 -23.6923 
4483 281 2 12.01 0.14 12.2457 16.2063 1.19211 110.61 -32.9761 148.739 2 -1 3 0.00383431 -0.000224443 0.0022995 -21.4501 27.7044 -17.8844 
5276 330 3 1.008 0.03 13.6943 15.4527 5.41713 62.8766 -33.7296 -43.7652 1 -1 -1 0.00342796 -0.00353528 0.0123906 -6.32941 -8.57486 -9.72917 
5269 330 2 12.01 0.11 14.5768 15.7047 5.96982 63.7592 -33.4776 -43.2125 1 -1 -1 -0.00634938 0.00295787 0.00163952 -33.3098 14.1987 34.532 
2688 168 3 1.008 0.03 15.563 9.8743 0.844244 -82.8017 9.8743 50.0266 -2 0 1 0.0256611 -0.000211049 -0.0155784 6.78075 -4.42546 -4.43476 
468 30 2 12.01 0.14 18.3252 8.86175 2.66437 67.5075 58.0441 51.8467 1 1 1 -0.00430097 0.00212069 -0.00114715 11.1357 -26.7442 -53.8401 
473 30 3 1.008 0.03 18.4368 9.60174 1.84491 67.6191 58.7841 51.0273 1 1 1 0.00814701 -0.025017 -0.0113022 8.44056 2.85823 21.2972 
8640 540 3 1.008 0.03 24.9667 10.9396 7.09954 74.1491 60.122 7.09954 1 1 0 -0.00487601 0.0171746 -0.020475 10.7338 11.968 -13.6698 
2929 184 1 16 -0.4 22.4025 10.9377 6.52078 -75.9622 60.1201 -42.6616 -2 1 -1 0.00324112 0.00244274 0.0025964 8.68518 -14.0279 13.392 