ITEM: TIMESTEP
1850000
ITEM: NUMBER OF ATOMS
10479
ITEM: BOX BOUNDS pp pp pp
4.0882558190751794e-01 4.9591174418091420e+01
4.0882558190751794e-01 4.9591174418091420e+01
4.0882558190751794e-01 4.9591174418091420e+01
ITEM: ATOMS id mol type mass q x y z xu yu zu ix iy iz vx vy vz fx fy fz 
6196 388 2 12.01 0.14 4.42534 4.35664 5.47363 53.6077 -94.0081 -43.7087 1 -2 -1 -0.00614629 -0.00556914 -0.00500546 13.3729 -17.9131 48.6552 
6201 388 3 1.008 0.03 5.26832 3.64358 5.66176 54.4507 -94.7211 -43.5206 1 -2 -1 -0.00589121 -0.05222 -0.00492733 -16.3266 16.9943 5.61014 
713 45 3 1.008 0.03 7.31109 3.85213 6.2861 7.31109 -94.5126 6.2861 0 -2 0 -0.000298136 0.0233047 0.000219973 2.32928 -7.88155 -1.01551 
6207 388 3 1.008 0.03 5.82232 5.79422 3.03339 55.0047 -92.5705 -46.149 1 -2 -1 0.00707362 -0.0326787 0.013708 5.83393 8.68434 -16.9861 
6208 388 3 1.008 0.03 6.59061 4.54297 4.02053 55.773 -93.8217 -45.1618 1 -2 -1 0.00697689 0.0194957 -0.0102779 -13.1577 19.7319 -2.80125 
6202 388 3 1.008 0.03 3.76352 3.78186 4.894 52.9459 -94.5828 -44.2884 1 -2 -1 0.0159578 0.0163943 0.0111126 -20.5948 -11.9928 -15.2454 
3113 195 3 1.008 0.03 7.64675 2.88683 3.67073 7.64675 52.0692 52.8531 0 1 1 -0.0281609 0.0279708 -0.000269398 9.97881 -17.2228 1.79205 
6194 388 1 16 -0.4 4.84238 5.44861 4.75861 54.0247 -92.9161 -44.4237 1 -2 -1 -0.00372114 -0.00245609 -0.00605908 21.4795 -5.30045 -38.317 
6198 388 2 12.01 0.11 5.62816 4.94287 3.64119 54.8105 -93.4218 -45.5412 1 -2 -1 -0.00707676 -0.00655047 0.00377247 18.2365 18.8727 47.8557 
3108 195 2 12.01 0.14 7.33085 1.8323 3.66949 7.33085 51.0146 52.8518 0 1 1 0.0015044 0.00368308 0.00182154 -16.6463 8.49686 7.28924 
3110 195 2 12.01 0.11 5.3073 0.885093 3.12619 5.3073 50.0674 52.3085 0 1 1 -0.00544143 0.00171684 0.00125534 -34.5324 -12.1291 -3.23359 
9648 604 7 12.01 0.35 7.48059 7.77527 0.441347 7.48059 56.9576 0.441347 0 1 0 -0.00152726 -0.00487936 -0.0042517 0.173942 23.256 -21.1165 
3120 195 3 1.008 0.03 5.39806 1.02699 2.04293 5.39806 50.2093 51.2253 0 1 1 0.020012 -0.00865599 0.0178693 1.90842 6.28411 4.79752 
3106 195 1 16 -0.4 5.93414 1.80956 3.94666 5.93414 50.9919 53.129 0 1 1 -0.00197593 0.00746207 -0.000199192 21.1924 10.9687 5.69527 
6206 388 3 1.008 0.03 5.26687 4.12283 3.08178 54.4492 -94.2419 -46.1006 1 -2 -1 -0.0502657 -0.0349827 -0.00652948 -22.0819 -10.3697 -15.1127 
8565 536 2 12.01 0.11 0.602495 2.1473 4.81315 0.602495 51.3297 -44.3692 0 1 -1 -0.00361123 -0.00626988 -0.00368203 -22.0786 -27.3848 6.83649 
4849 304 1 16 -0.4 1.45985 2.65183 1.05481 -47.7225 2.65183 50.2372 -1 0 1 0.000869611 -0.00304755 -2.61124e-06 -10.3664 -20.1244 4.14927 
6200 388 3 1.008 0.03 4.223 5.53283 7.41374 53.4053 -92.8319 -41.7686 1 -2 -1 0.00220594 -0.0029533 0.0112049 11.4692 1.70629 -4.1273 
3918 245 3 1.008 0.03 7.58541 5.00235 1.55404 7.58541 54.1847 99.9187 0 1 2 0.00407454 -0.0243486 0.0159125 18.883 -3.07775 -17.8508 
8572 536 3 1.008 0.03 1.43457 2.20616 4.13188 1.43457 51.3885 -45.0505 0 1 -1 0.0136369 -0.000165066 -0.00327997 8.59056 7.20604 -4.24168 
9036 565 3 1.008 0.03 2.4154 6.1738 2.81563 2.4154 -92.1909 101.18 0 -2 2 -0.0129972 0.0104082 -0.013655 -13.4091 8.46114 -8.07537 
3112 195 3 1.008 0.03 8.03748 1.28548 5.60783 8.03748 50.4678 54.7902 0 1 1 -0.00668711 -0.0169329 0.00774659 -16.4428 4.65739 18.3099 
6195 388 2 12.01 0.14 3.68676 4.85316 6.7606 52.8691 -93.5115 -42.4218 1 -2 -1 0.00413945 -0.000502663 0.00486644 11.8469 -25.8668 6.78878 
8571 536 3 1.008 0.03 0.994306 2.07106 5.85737 0.994306 51.2534 -43.325 0 1 -1 0.0117661 -0.00283522 0.0286544 -7.56349 0.876453 -16.9593 
9029 565 2 12.01 0.11 1.85378 6.42242 3.72012 1.85378 -91.9423 102.085 0 -2 2 0.00422534 0.00729668 -0.00100156 -19.1155 -6.54305 11.4299 
9037 565 3 1.008 0.03 2.6674 6.79513 4.33906 2.6674 -91.5696 102.704 0 -2 2 0.0227419 -0.0149538 -0.0139094 -7.37423 3.26072 9.45654 
4853 304 2 12.01 0.11 2.5677 1.86664 0.681231 -46.6146 1.86664 49.8636 -1 0 1 0.00240835 0.000229771 -0.00040032 -16.6987 4.44202 -33.7104 
6199 388 3 1.008 0.03 2.85381 5.4182 6.42755 52.0362 -92.9465 -42.7548 1 -2 -1 0.0211022 -0.0196112 0.013685 -17.8362 9.20471 -4.11132 
708 45 2 12.01 0.14 7.9812 4.27605 7.02355 7.9812 -94.0887 7.02355 0 -2 0 0.00545794 -0.00197118 0.00393504 -2.09374 4.4405 -35.2276 
9650 604 8 19 -0.16 7.71638 7.20828 1.59074 7.71638 56.3906 1.59074 0 1 0 -0.00119628 0.00135103 -0.000378935 -4.20531 0.660889 21.8916 
707 45 2 12.01 0.14 8.03102 5.74836 6.63982 8.03102 -92.6163 6.63982 0 -2 0 -0.00485632 -0.00111054 -0.00498049 41.3524 14.9272 32.3345 
712 45 3 1.008 0.03 8.02815 5.84545 5.58959 8.02815 -92.5192 5.58959 0 -2 0 -0.0161584 0.0204899 0.0215689 1.85007 1.76789 -24.6597 
8400 525 3 1.008 0.03 3.58846 6.75799 0.457072 101.953 105.123 -97.9076 2 2 -2 -0.00728015 -0.00380817 0.0144954 -17.298 3.68605 21.4745 
3107 195 2 12.01 0.14 8.09823 0.915057 4.61336 8.09823 50.0974 53.7957 0 1 1 -0.00455277 0.00652187 0.0005145 14.5622 37.857 -0.870003 
3910 245 2 12.01 0.11 8.14506 4.57806 0.677734 8.14506 53.7604 99.0424 0 1 2 -0.0020111 0.000549076 0.00234463 12.9064 -6.8216 14.1206 
9025 565 1 16 -0.4 0.730246 7.37786 3.62918 0.730246 -90.9868 101.994 0 -2 2 -0.00548263 -0.00569845 0.000138765 25.8017 -24.1025 -2.4858 
4861 304 3 1.008 0.03 3.38109 2.50803 0.714511 -45.8013 2.50803 49.8969 -1 0 1 -0.00498978 -0.0129526 -0.00721148 30.1832 20.4569 0.0262706 
3114 195 3 1.008 0.03 7.45549 1.44779 2.68841 7.45549 50.6301 51.8708 0 1 1 -0.0126369 0.02123 0.0109914 14.6293 1.90723 -21.1084 
4859 304 3 1.008 0.03 2.82354 1.09145 1.32204 -46.3588 1.09145 50.5044 -1 0 1 -0.0256692 0.0114513 0.00817281 -0.235415 -27.4152 24.654 
3119 195 3 1.008 0.03 4.24969 0.955178 3.38217 4.24969 50.1375 52.5645 0 1 1 0.000188753 -0.0015449 -0.0328588 -0.790916 -1.67601 -4.04474 
711 45 3 1.008 0.03 7.10158 6.20503 6.9591 7.10158 -92.1597 6.9591 0 -2 0 -0.0114609 0.00165445 -0.0165022 -1.16386 6.74001 5.66707 
9035 565 3 1.008 0.03 1.50258 5.43013 4.10834 1.50258 -92.9346 102.473 0 -2 2 -0.0179293 0.0127349 -0.0199465 6.92211 19.7183 -4.63525 
3906 245 1 16 -0.4 8.61927 3.29166 1.07575 8.61927 52.474 99.4404 0 1 2 -0.00903825 -0.00533542 -0.00426994 -15.8154 8.11522 13.5367 
3907 245 2 12.01 0.14 9.919 1.33086 0.853083 9.919 50.5132 99.2178 0 1 2 0.0009026 0.000542551 0.00951209 -21.7162 31.2976 -1.47194 
5546 347 3 1.008 0.03 11.2906 5.24004 0.773463 -87.0741 54.4224 148.321 -2 1 3 0.0204345 0.0212779 0.00703894 -16.2971 -14.6733 -3.72462 
714 45 3 1.008 0.03 8.95508 3.78822 6.89038 8.95508 -94.5765 6.89038 0 -2 0 -0.0174923 -0.00308048 -0.0220204 -6.95123 1.78372 -8.75042 
3105 195 1 16 -0.4 9.46965 1.01834 4.32837 9.46965 50.2007 53.5107 0 1 1 -0.00349065 0.000267811 -0.00288518 -6.41901 4.44081 -19.0437 
4014 251 3 1.008 0.03 10.8014 3.44827 5.68788 59.9837 52.6306 153.235 1 1 3 0.0152612 0.0125615 -0.0268295 14.2809 12.3046 -24.5097 
4016 251 3 1.008 0.03 11.0389 2.68542 4.11691 60.2213 51.8678 151.664 1 1 3 -0.0207401 0.00229906 -0.00173178 4.61716 18.0857 -2.61309 
4010 251 3 1.008 0.03 10.7486 6.22685 4.74131 59.9309 55.4092 152.288 1 1 3 -0.00787426 0.00176937 0.00911268 20.587 -13.9133 -1.57648 
4006 251 2 12.01 0.11 10.8905 3.67183 4.58534 60.0728 52.8542 152.132 1 1 3 0.00345183 -0.00721325 -0.00273011 35.5594 -11.1835 18.1358 
4015 251 3 1.008 0.03 9.90568 3.9995 4.3338 59.088 53.1818 151.881 1 1 3 -0.00386439 -0.00916145 0.00612736 -10.1037 10.7627 -12.3743 
4009 251 3 1.008 0.03 12.0306 5.7726 5.84673 61.2129 54.9549 153.394 1 1 3 -0.00145554 -0.0143454 -0.00484155 5.5496 -1.25192 27.0613 
4004 251 2 12.01 0.14 11.7989 5.82661 4.82349 60.9812 55.009 152.371 1 1 3 -0.00574127 -0.00481358 0.00498233 -19.6082 -3.15479 -23.295 
4002 251 1 16 -0.4 11.9999 4.56442 4.18768 61.1823 53.7468 151.735 1 1 3 0.00144779 0.00233796 0.00629359 -50.0059 -17.4051 24.6608 
4001 251 1 16 -0.4 14.0314 6.70837 4.55523 63.2138 55.8907 152.102 1 1 3 7.77424e-05 -0.00279157 -0.00244768 -7.04099 -12.01 12.686 
4003 251 2 12.01 0.14 12.7201 6.76457 4.10652 61.9025 55.9469 151.654 1 1 3 0.00706242 -0.00239305 0.00236647 -5.93062 -16.5757 -28.1755 
4008 251 3 1.008 0.03 12.7937 6.41508 3.06402 61.976 55.5974 150.611 1 1 3 0.0199126 0.0030883 -0.00306919 -8.82656 11.6426 3.26783 
2396 150 3 1.008 0.03 14.3429 4.2949 5.52762 -84.0218 4.2949 54.71 -2 0 1 -0.0175088 0.013549 -0.00664346 6.04038 7.24145 6.20579 
2395 150 3 1.008 0.03 16.0475 4.02696 5.91648 -82.3172 4.02696 55.0988 -2 0 1 -0.00131737 0.00952757 0.0168293 -22.519 18.8898 11.5242 
2397 150 3 1.008 0.03 15.174 5.57802 6.4151 -83.1907 5.57802 55.5975 -2 0 1 0.0273709 0.0153229 -0.00680816 5.02429 -6.09543 3.84766 
2389 150 2 12.01 0.11 15.0921 4.49334 6.31497 -83.2726 4.49334 55.4973 -2 0 1 0.00468851 0.0077515 0.00810301 9.38481 -37.8498 -8.70086 
4011 251 3 1.008 0.03 14.7706 7.75037 2.80472 63.953 56.9327 150.352 1 1 3 -0.00845327 0.0128442 -0.00288047 -6.21716 -11.1235 9.60585 
4007 251 3 1.008 0.03 12.2669 7.73009 4.13808 61.4492 56.9124 151.685 1 1 3 0.0145052 -0.00669692 -0.000762765 0.815458 18.8775 -0.0179102 
4013 251 3 1.008 0.03 15.8388 7.43485 4.24441 65.0212 56.6172 151.791 1 1 3 -0.00138558 0.00255034 -0.00340727 -28.47 11.5091 -13.7724 
4005 251 2 12.01 0.11 14.7771 7.66199 3.90737 63.9594 56.8443 151.454 1 1 3 -0.00361361 0.00729473 -0.00642025 69.2234 -19.1741 -10.0967 
3115 195 3 1.008 0.03 11.3369 0.546284 4.98333 11.3369 49.7286 54.1657 0 1 1 -0.015131 -0.00110455 0.01026 -14.5712 0.778101 7.52889 
3116 195 3 1.008 0.03 10.2668 1.31483 6.15703 10.2668 50.4972 55.3394 0 1 1 0.00539617 -0.00478613 -0.00906814 -3.71448 0.658505 22.0215 
3911 245 3 1.008 0.03 10.3297 1.6361 1.81128 10.3297 50.8185 100.176 0 1 2 0.000929836 -0.00125081 0.0231949 -0.279685 -1.69481 4.37605 
3109 195 2 12.01 0.11 10.2913 0.603391 5.36476 10.2913 49.7857 54.5471 0 1 1 -0.000575397 -0.0056138 0.0119204 32.1987 -8.11485 -31.7322 
5135 321 3 1.008 0.03 16.3224 5.29715 3.08719 16.3224 54.4795 3.08719 0 1 0 0.00835916 0.00776611 0.00920249 1.52708 6.01876 3.21658 
5134 321 3 1.008 0.03 16.2314 3.87831 2.12767 16.2314 53.0607 2.12767 0 1 0 -0.0329424 0.0262038 -0.00955502 4.53767 -1.66843 1.64688 
2392 150 3 1.008 0.03 15.3798 1.93221 6.92854 -82.9849 1.93221 56.1109 -2 0 1 -0.0109632 -0.0309635 -0.0206501 -13.0443 0.880216 0.740938 
5542 347 2 12.01 0.11 13.1883 3.71259 1.30077 -85.1764 52.8949 148.848 -2 1 3 -0.00253134 0.00616923 -0.00565471 -39.4631 -20.3225 -19.9958 
4012 251 3 1.008 0.03 14.5173 8.57573 4.29484 63.6997 57.7581 151.842 1 1 3 -0.0186936 -0.000974062 -0.0157268 -8.42445 41.5169 14.4648 
5550 347 3 1.008 0.03 12.2315 3.27813 1.62647 -86.1332 52.4605 149.174 -2 1 3 0.00820523 -0.0100203 -0.0120447 7.70427 2.00527 4.15991 
715 45 3 1.008 0.03 9.07134 8.24626 6.23358 9.07134 -90.1184 6.23358 0 -2 0 0.0177027 -0.0337348 -0.00746482 3.92609 -22.542 53.5819 
968 61 3 1.008 0.03 16.0463 7.78474 6.87314 16.0463 7.78474 56.0555 0 0 1 -0.0407353 0.010272 0.0374538 8.94408 3.4228 -11.3543 
5545 347 3 1.008 0.03 12.5514 6.18163 0.713235 -85.8133 55.364 148.26 -2 1 3 -0.0240243 0.0119733 -0.0207359 9.64829 -9.63122 -28.3692 
5551 347 3 1.008 0.03 13.8742 2.9104 1.29895 -84.4905 52.0928 148.846 -2 1 3 0.00507668 0.015671 0.00809753 16.7127 -14.7991 -1.37623 
2387 150 2 12.01 0.14 14.4378 2.43183 7.2193 -83.9269 2.43183 56.4016 -2 0 1 -0.00618359 0.00472733 0.00114315 -13.7972 17.9276 -16.0219 
2391 150 3 1.008 0.03 13.6815 2.4177 6.39575 -84.6832 2.4177 55.5781 -2 0 1 -0.000782645 -0.0246645 -0.0194344 14.9215 -8.38707 11.0094 
5552 347 3 1.008 0.03 13.4764 4.41301 2.03064 -84.8883 53.5954 149.578 -2 1 3 0.00991445 -0.00516206 0.00430054 11.1006 21.7357 12.467 
709 45 2 12.01 0.11 9.10063 7.7339 7.28846 9.10063 -90.6308 7.28846 0 -2 0 -0.00424021 0.0054015 -0.00472945 -2.87191 50.9861 -36.8169 
705 45 1 16 -0.4 9.28553 6.37849 7.14065 9.28553 -91.9862 7.14065 0 -2 0 0.00186794 0.00715643 0.00401019 -45.7302 -42.8139 -8.55515 
7580 474 3 1.008 0.03 23.3911 0.538254 2.76074 23.3911 -48.6441 -46.4216 0 -1 -1 0.00760853 -0.0146588 -0.0113482 -19.894 22.1147 -5.76258 
5127 321 3 1.008 0.03 19.0694 2.8107 5.43196 19.0694 51.993 5.43196 0 1 0 0.013402 -0.000389959 -0.0161395 -13.809 -16.1118 -4.15519 
5130 321 3 1.008 0.03 18.0082 2.1042 2.58352 18.0082 51.2866 2.58352 0 1 0 0.0111502 6.67711e-05 -0.00141932 -13.5864 -27.3701 -15.6733 
5122 321 1 16 -0.4 17.5978 3.80087 3.69156 17.5978 52.9832 3.69156 0 1 0 0.00119639 0.0032548 0.00151004 3.15273 -4.93686 11.9904 
5126 321 2 12.01 0.11 16.94 4.51426 2.66616 16.94 53.6966 2.66616 0 1 0 0.00967756 -0.000181307 0.00585512 -25.8837 -24.3362 4.48411 
7573 474 2 12.01 0.11 22.5178 0.914942 3.35319 22.5178 -48.2674 -45.8292 0 -1 -1 0.00235555 0.00755039 -0.00775128 -4.17001 -21.968 -14.5307 
5136 321 3 1.008 0.03 17.594 4.92507 1.96365 17.594 54.1074 1.96365 0 1 0 0.00523465 -0.0132426 0.032895 20.886 12.3357 -19.5981 
5124 321 2 12.01 0.14 18.4226 2.67285 3.35463 18.4226 51.8552 3.35463 0 1 0 -0.00448568 0.00121589 0.00599732 61.7134 62.2731 15.8972 
5123 321 2 12.01 0.14 18.7651 2.00547 4.72006 18.7651 51.1878 4.72006 0 1 0 -0.00620942 -0.00101473 0.00364256 11.1548 18.2651 -12.5998 
7579 474 3 1.008 0.03 22.5723 1.97166 3.59943 22.5723 -47.2107 -45.5829 0 -1 -1 -0.0217444 0.0242037 -0.00900607 10.8349 -1.30874 3.1519 
170 11 3 1.008 0.03 21.8628 6.12277 3.30409 120.227 55.3051 101.669 2 1 2 -2.52996e-05 0.00228477 -0.0194545 -15.2619 6.41883 -4.79157 
5129 321 3 1.008 0.03 19.4312 3.1023 2.95859 19.4312 52.2846 2.95859 0 1 0 0.030143 -0.0337491 0.00141283 -47.9505 -20.6218 11.8799 
161 11 1 16 -0.4 19.9384 7.59931 4.08293 118.303 56.7817 102.448 2 1 2 0.00107215 0.00214217 -0.00161106 -15.4822 0.738813 14.1823 
163 11 2 12.01 0.14 19.7627 6.19437 4.09555 118.127 55.3767 102.46 2 1 2 -0.00408255 -0.004141 0.000348951 -10.9185 7.5578 -40.0956 
164 11 2 12.01 0.14 21.1141 5.51252 3.82653 119.479 54.6949 102.191 2 1 2 -9.08142e-05 0.0080541 0.00328838 25.5145 -17.6235 19.3857 
162 11 1 16 -0.4 21.7209 5.1878 5.09123 120.086 54.3701 103.456 2 1 2 0.00148406 -0.00688245 -0.00863607 -29.2651 13.3239 -7.62886 
167 11 3 1.008 0.03 19.1645 5.84448 4.94509 117.529 55.0268 103.31 2 1 2 -0.00339488 0.03491 0.00214995 12.6977 -6.06547 -2.85669 
168 11 3 1.008 0.03 19.136 6.03652 3.18871 117.501 55.2189 101.553 2 1 2 0.00319319 0.00356178 -0.0309717 9.79601 -2.91379 15.1255 
169 11 3 1.008 0.03 21.0229 4.59366 3.22755 119.388 53.776 101.592 2 1 2 -0.011914 0.0072045 -0.0151191 -2.96784 6.33949 5.75902 
7581 474 3 1.008 0.03 21.5253 0.821557 2.84235 21.5253 -48.3608 -46.34 0 -1 -1 0.0209217 -0.0060195 0.0101562 20.5268 -6.78601 4.66808 
5128 321 3 1.008 0.03 19.6438 1.37802 4.65101 19.6438 50.5604 4.65101 0 1 0 0.0131171 0.0169695 0.00714895 4.44575 -4.1491 -6.04945 
5121 321 1 16 -0.4 17.6899 1.18063 5.06846 17.6899 50.363 5.06846 0 1 0 0.00297101 0.0044039 0.00256664 -6.41776 -6.31678 5.57544 
165 11 2 12.01 0.11 18.6707 8.22787 4.3213 117.035 57.4102 102.686 2 1 2 0.00304541 0.00490707 0.000182 -6.53407 9.77931 -42.7147 
172 11 3 1.008 0.03 17.988 8.13922 3.38119 116.353 57.3216 101.746 2 1 2 0.0123108 -0.00295825 0.0153152 30.7095 6.64287 40.1127 
173 11 3 1.008 0.03 18.1481 7.72512 5.14672 116.513 56.9075 103.511 2 1 2 -0.00125235 -0.0110902 0.00584284 1.04459 13.2455 1.6812 
5125 321 2 12.01 0.11 17.8265 0.593982 6.34985 17.8265 49.7763 6.34985 0 1 0 -0.00340199 -0.000225529 0.000330914 23.5679 -53.4964 9.11191 
6031 377 3 1.008 0.03 22.57 8.5616 7.17449 120.935 57.7439 7.17449 2 1 0 0.00748131 -0.000863629 0.0104515 -11.5054 -5.36711 -6.35905 
341 22 2 12.01 0.11 24.8328 8.24586 2.85139 74.0151 8.24586 150.398 1 0 3 -0.00333467 0.00735626 0.0017207 14.0517 -22.0439 58.9861 
176 11 3 1.008 0.03 23.1225 3.77666 4.69681 121.487 52.959 103.062 2 1 2 0.0132091 0.00134253 0.00265333 3.78448 -2.7057 -13.6755 
6032 377 3 1.008 0.03 21.3273 7.39612 6.49762 119.692 56.5785 6.49762 2 1 0 -0.0121081 -0.00147795 0.011762 4.99162 3.08652 -1.5017 
174 11 3 1.008 0.03 23.6792 5.51301 4.40832 122.044 54.6954 102.773 2 1 2 0.0144614 -0.0155405 0.00684132 -5.52306 -10.304 -0.0402369 
175 11 3 1.008 0.03 23.4748 4.78615 5.98111 121.84 53.9685 104.346 2 1 2 0.0144644 0.00477356 -0.018746 0.606976 4.0805 5.16467 
8285 518 3 1.008 0.03 24.8128 0.637131 6.39158 24.8128 49.8195 6.39158 0 1 0 0.00952446 -0.0070906 -0.00376681 22.1829 -31.6143 14.9702 
166 11 2 12.01 0.11 23.05 4.81233 4.98533 121.415 53.9947 103.35 2 1 2 -0.00685542 0.0026387 -0.00705875 21.8877 -1.34019 10.7617 
347 22 3 1.008 0.03 24.3077 7.30106 2.85595 73.4901 7.30106 150.403 1 0 3 0.0158064 -0.000650454 0.00673949 1.11501 -8.09452 -7.36165 
5132 321 3 1.008 0.03 17.5111 1.22438 7.09606 17.5111 50.4067 7.09606 0 1 0 0.0050081 -0.0102336 -0.010198 -8.62337 33.4417 26.7645 
7740 484 3 1.008 0.03 21.9634 2.47752 7.10686 169.51 -46.7048 154.654 3 -1 3 0.00530261 -0.0110091 -0.00741835 -2.20274 -12.8606 15.6243 
6022 377 2 12.01 0.11 21.4928 8.3375 7.02934 119.857 57.5198 7.02934 2 1 0 -0.00403624 0.0048409 0.00256255 10.8708 18.625 -15.117 
7741 484 3 1.008 0.03 21.0334 1.0399 7.00466 168.58 -48.1424 154.552 3 -1 3 0.00908959 0.0385336 -0.0118133 -9.93927 -24.1536 -16.772 
8239 515 3 1.008 0.03 17.9477 5.09706 6.63335 116.312 54.2794 -42.549 2 1 -1 0.0211536 -0.00960372 -0.0143295 15.2628 -4.80545 16.4668 
8240 515 3 1.008 0.03 19.3294 5.91336 7.42213 117.694 55.0957 -41.7602 2 1 -1 -0.0184685 0.00202356 -0.0455392 1.58404 -0.235085 2.36985 
2824 177 3 1.008 0.03 1.16573 13.4563 6.65053 -48.0166 62.6386 55.8329 -1 1 1 -0.000870694 -0.00106241 -0.0174707 -3.77661 -4.28213 0.498783 
3659 229 3 1.008 0.03 2.91732 15.7627 0.571446 2.91732 64.9451 0.571446 0 1 0 0.0159574 0.00809473 0.00995653 -3.29405 -7.71966 6.13517 
8106 507 3 1.008 0.03 1.30616 10.0655 2.08687 50.4885 10.0655 100.452 1 0 2 0.00356193 -0.00905368 -0.0060299 26.2916 -6.70746 12.7535 
2819 177 2 12.01 0.14 1.45306 14.4759 6.88525 -47.7293 63.6582 56.0676 -1 1 1 -0.00450358 0.00294521 0.0010768 32.6686 33.9446 -13.4217 
8097 507 1 16 -0.4 0.928086 12.5468 2.78181 50.1104 12.5468 101.147 1 0 2 -0.00148052 -0.00307047 0.000991196 9.61656 4.4863 -16.7421 
9101 569 3 1.008 0.03 6.57327 9.91803 3.93942 -42.6091 59.1004 -45.2429 -1 1 -1 -0.0231293 0.020161 -0.0015912 -36.8804 -15.3491 -47.7564 
9093 569 2 12.01 0.11 7.18019 10.2962 4.63872 -42.0022 59.4786 -44.5436 -1 1 -1 -0.00259567 -0.00303061 0.00885417 52.5901 2.17417 30.7871 
9095 569 3 1.008 0.03 5.84161 9.20705 6.44395 -43.3407 58.3894 -42.7384 -1 1 -1 0.0246159 -0.0155119 0.000556379 -9.29785 5.96766 -5.88143 
8105 507 3 1.008 0.03 2.08547 9.54958 3.5811 51.2678 9.54958 101.946 1 0 2 -0.0105452 0.0013086 -0.0155949 6.10708 -8.01778 5.25287 
8100 507 2 12.01 0.14 2.02895 10.3714 2.88884 51.2113 10.3714 101.254 1 0 2 -0.00639954 -0.00817539 0.010016 -18.4935 -15.6104 -55.26 
9098 569 3 1.008 0.03 3.99133 10.0178 4.84552 -45.191 59.2001 -44.3368 -1 1 -1 0.00855823 -0.00681747 -0.0294792 4.53878 -15.3954 -13.8368 
8110 507 3 1.008 0.03 4.03935 8.89606 2.96345 53.2217 8.89606 101.328 1 0 2 0.0112699 0.0157329 0.0146332 11.8736 2.37232 -8.29864 
2820 177 2 12.01 0.14 2.38322 15.0553 5.79509 -46.7991 64.2377 54.9774 -1 1 1 0.00556376 0.00826683 0.0010167 57.1748 -28.124 22.437 
2825 177 3 1.008 0.03 1.88787 15.1983 4.87718 -47.2945 64.3807 54.0595 -1 1 1 -0.0233976 0.00859117 0.0130852 -17.5432 11.1593 -18.1682 
8112 507 3 1.008 0.03 5.1007 9.68148 1.63807 54.283 9.68148 100.003 1 0 2 -0.00536692 0.0353747 0.0112034 -25.5291 3.00906 20.108 
8102 507 2 12.01 0.11 4.06211 9.54796 2.07495 53.2445 9.54796 100.44 1 0 2 0.000824458 -0.00931068 -0.00439406 -3.24869 25.1623 -17.432 
3656 229 3 1.008 0.03 4.66426 12.9623 1.84237 4.66426 62.1446 1.84237 0 1 0 -0.000669602 -0.0110879 0.0157557 7.06325 -19.1966 -7.96098 
3649 229 1 16 -0.4 4.54297 14.9071 1.53087 4.54297 64.0895 1.53087 0 1 0 -0.00107397 0.0028007 -0.00408078 2.50144 23.9607 -25.5052 
3652 229 2 12.01 0.14 6.21078 14.0068 2.92399 6.21078 63.1891 2.92399 0 1 0 0.001322 -0.00289401 -0.000395636 44.1581 9.69775 25.5322 
3650 229 1 16 -0.4 7.17926 14.4593 1.9542 7.17926 63.6417 1.9542 0 1 0 0.00428362 -0.00691891 0.00261815 -20.4907 -8.60514 9.74575 
3651 229 2 12.01 0.14 4.84457 13.8608 2.38131 4.84457 63.0431 2.38131 0 1 0 0.00532229 -0.00144816 -0.00120185 -29.8571 -2.1271 5.41669 
3658 229 3 1.008 0.03 6.44313 13.0274 3.38877 6.44313 62.2097 3.38877 0 1 0 0.00189118 -0.0111578 1.83192e-05 1.34464 10.5613 -2.58178 
3657 229 3 1.008 0.03 6.33604 14.7912 3.709 6.33604 63.9736 3.709 0 1 0 0.0180231 0.0147196 -0.026258 -14.0105 -16.7725 -6.61043 
3660 229 3 1.008 0.03 2.76285 14.0028 0.818026 2.76285 63.1852 0.818026 0 1 0 0.00783272 -0.00684418 -0.00253243 -1.18767 1.462 3.65639 
3655 229 3 1.008 0.03 4.12414 13.8258 3.18381 4.12414 63.0081 3.18381 0 1 0 0.00157394 -0.0321109 0.00252941 -0.274828 -1.04291 8.00405 
9647 604 6 16 -0.53 8.04502 10.1612 1.34014 8.04502 59.3436 1.34014 0 1 0 -0.00766954 0.000873754 0.000945295 -13.6274 8.77331 17.3666 
3654 229 2 12.01 0.11 8.3926 13.7594 2.2575 8.3926 62.9417 2.2575 0 1 0 0.00461481 0.000249225 0.00232974 37.7087 49.3497 -50.4086 
8098 507 1 16 -0.4 3.28666 10.7805 2.30966 52.469 10.7805 100.674 1 0 2 -0.00448304 0.00380563 -0.00240395 13.2672 -38.0546 11.062 
2818 177 1 16 -0.4 3.42905 14.0601 5.45995 -45.7533 63.2424 54.6423 -1 1 1 0.00154269 -0.00232071 0.000938329 -38.992 24.7418 4.96176 
3653 229 2 12.01 0.11 3.12566 14.9343 1.26355 3.12566 64.1166 1.26355 0 1 0 0.0067255 -0.00532918 -0.00362513 4.8672 16.7315 23.3139 
10466 677 9 24.305 2 6.16556 15.7949 0.798204 6.16556 64.9772 0.798204 0 1 0 -0.0036253 -0.00348864 -0.00412352 12.8277 -7.51384 -1.82625 
3661 229 3 1.008 0.03 2.6194 15.1622 2.24784 2.6194 64.3445 2.24784 0 1 0 -0.00520162 0.0076099 -0.00921624 3.08923 -7.37423 -26.258 
8111 507 3 1.008 0.03 3.53366 9.00981 1.28774 52.716 9.00981 99.6524 1 0 2 0.00461423 0.0120154 -0.0125311 -0.238963 -2.44779 1.57274 
2826 177 3 1.008 0.03 2.89281 15.9965 6.1579 -46.2895 65.1788 55.3402 -1 1 1 -0.0158767 0.00519739 0.00466773 -19.6547 -15.5848 -13.9009 
3663 229 3 1.008 0.03 8.2683 12.745 2.07588 8.2683 61.9274 2.07588 0 1 0 0.000349854 -0.00628937 0.00336478 -5.26236 -35.3133 -0.166415 
9099 569 3 1.008 0.03 7.95521 10.9538 4.22384 -41.2271 60.1361 -44.9585 -1 1 -1 -0.00959101 -0.0250287 -0.00103676 -3.52503 -8.19488 -5.23154 
9089 569 1 16 -0.4 6.49543 11.0491 5.56231 -42.6869 60.2315 -43.62 -1 1 -1 0.00262082 -0.00149835 0.00365157 -33.4536 -5.40153 38.5685 
9097 569 3 1.008 0.03 3.92537 11.5609 5.44346 -45.257 60.7432 -43.7389 -1 1 -1 -0.0112009 0.00457613 -0.00871346 12.3672 -14.7916 13.1432 
9100 569 3 1.008 0.03 7.6479 9.41209 5.09443 -41.5344 58.5944 -44.0879 -1 1 -1 -0.0106895 0.0270425 -0.0171229 1.25423 10.1785 -1.71372 
9090 569 1 16 -0.4 2.98735 10.1513 6.54166 -46.195 59.3336 -42.6407 -1 1 -1 0.00786988 0.00046326 -0.00195074 -2.81132 -26.4147 4.21536 
9851 618 7 12.01 0.35 8.19924 16.4535 6.68814 57.3816 65.6359 6.68814 1 1 0 0.00535206 0.000950806 0.00795569 5.47119 22.684 -10.5769 
9091 569 2 12.01 0.14 5.53661 10.2644 6.35303 -43.6457 59.4468 -42.8293 -1 1 -1 0.00273022 0.00836646 0.000786532 28.8209 25.9387 20.3952 
9092 569 2 12.01 0.14 4.10933 10.5093 5.77208 -45.073 59.6917 -43.4103 -1 1 -1 -0.00286605 -0.00391485 -0.00430526 -0.667542 33.6035 -0.623503 
2822 177 2 12.01 0.11 4.63244 14.2123 6.1576 -44.5499 63.3947 55.3399 -1 1 1 0.00487981 0.00193597 0.000406256 -1.5991 21.4996 13.61 
9096 569 3 1.008 0.03 5.68288 10.6451 7.4204 -43.4995 59.8275 -41.7619 -1 1 -1 -0.00263614 0.00362369 0.00619605 -13.8489 -7.62668 -33.7344 
2831 177 3 1.008 0.03 5.39097 13.7142 5.61157 -43.7914 62.8965 54.7939 -1 1 1 -0.000276117 -0.00589994 -0.00476281 15.1554 -17.5608 -1.69416 
2830 177 3 1.008 0.03 4.60198 13.9293 7.21044 -44.5804 63.1117 56.3928 -1 1 1 0.0148735 0.0131375 -0.0154856 -2.24641 -7.45554 -2.3169 
8103 507 3 1.008 0.03 1.8523 11.7179 4.37349 51.0346 11.7179 102.738 1 0 2 -0.00602658 -0.0202427 -0.0103166 21.8071 17.7776 30.8523 
9853 618 8 19 -0.16 7.13006 15.6831 6.74874 56.3124 64.8654 6.74874 1 1 0 0.0045002 0.0033806 0.00162961 -3.69657 -2.08985 0.168688 
2832 177 3 1.008 0.03 4.95624 15.2451 6.15485 -44.2261 64.4275 55.3372 -1 1 1 0.00308126 -0.00818126 0.0120838 -0.702235 5.70777 -2.23463 
8099 507 2 12.01 0.14 1.28227 11.4204 3.57083 50.4646 11.4204 101.936 1 0 2 -0.00131531 0.00423746 0.0020734 -65.7442 7.73435 18.4006 
9641 604 7 12.01 0.35 11.0192 11.207 0.474579 11.0192 60.3893 0.474579 0 1 0 -0.00808147 0.00212121 0.00221104 12.5751 6.75461 3.50908 
4821 302 2 12.01 0.11 16.0871 8.98289 0.517962 163.634 -40.1995 -48.6644 3 -1 -1 0.00571323 -0.00744724 0.00103811 9.46814 2.88274 -9.17416 
9640 604 6 16 -0.53 12.3541 8.85434 0.51738 12.3541 58.0367 0.51738 0 1 0 -0.00132205 -0.00175467 -0.00215085 -32.6994 28.3588 13.9753 
4829 302 3 1.008 0.03 16.5606 8.95262 1.52143 164.108 -40.2297 -47.6609 3 -1 -1 -0.00701078 -0.00814288 0.0255725 -3.19333 16.3285 -13.6094 
3662 229 3 1.008 0.03 8.79323 13.9098 3.25687 8.79323 63.0921 3.25687 0 1 0 -0.0275972 0.0160328 -0.0104261 -1.16018 2.74694 3.38602 
9643 604 8 19 -0.16 12.0159 11.8705 1.04885 12.0159 61.0528 1.04885 0 1 0 -0.00243094 0.00262247 0.00282689 1.52246 -0.492823 -6.98751 
4828 302 3 1.008 0.03 15.0019 9.19972 0.561671 162.549 -39.9826 -48.6207 3 -1 -1 -0.0132167 0.0118847 -0.00394293 15.0421 12.4426 6.17769 
3664 229 3 1.008 0.03 9.18162 14.0702 1.47156 9.18162 63.2526 1.47156 0 1 0 -0.0292145 -0.0285863 0.010069 -28.0888 -9.54248 36.2261 
9852 618 8 19 -0.16 9.17939 15.7098 6.24193 58.3617 64.8921 6.24193 1 1 0 0.00768454 0.00165708 -0.00165683 6.84317 -7.15702 -14.1483 
9639 604 6 16 -0.53 10.8769 9.51475 2.46152 10.8769 58.6971 2.46152 0 1 0 -0.000504751 -0.000211007 -0.00282832 5.05726 -11.1952 -38.2398 
9638 604 5 32.06 1.02 11.0746 9.41316 1.00259 11.0746 58.5955 1.00259 0 1 0 -0.00230733 0.00105231 -0.00401334 12.7171 -1.07693 26.7178 
9644 604 8 19 -0.16 9.92933 11.9361 0.764079 9.92933 61.1185 0.764079 0 1 0 0.00405693 -0.00078995 -0.00180918 6.90199 -24.0864 1.75096 
7195 450 3 1.008 0.03 10.1092 10.7448 5.29681 10.1092 59.9271 152.844 0 1 3 0.0348702 -0.00506056 -0.00210761 20.1052 12.1855 10.2894 
7197 450 3 1.008 0.03 11.8236 10.4633 5.77529 11.8236 59.6456 153.322 0 1 3 0.0156383 0.017809 0.0316946 -4.64676 6.65067 2.6166 
7189 450 2 12.01 0.11 10.9221 11.0506 6.01256 10.9221 60.233 153.56 0 1 3 -0.0028765 -0.00615001 -8.80012e-05 -21.152 3.44475 -32.6882 
9830 616 8 19 -0.16 12.5249 14.2117 3.34354 61.7073 14.2117 3.34354 1 0 0 0.000502063 -0.00132058 0.00608585 11.6653 -33.203 -12.9809 
10149 638 6 16 -0.53 15.7148 13.4777 2.08263 15.7148 13.4777 51.265 0 0 1 0.003512 0.00342357 0.00015957 13.2122 5.68072 14.0732 
10152 638 8 19 -0.16 13.7739 11.6834 3.64909 13.7739 11.6834 52.8314 0 0 1 0.00125455 -0.0014317 0.00542666 -0.0279743 -10.868 -12.7372 
10150 638 6 16 -0.53 16.6355 11.3726 2.99124 16.6355 11.3726 52.1736 0 0 1 -0.00506478 0.0121746 0.00238424 18.2633 -3.22415 0.548864 
10148 638 5 32.06 1.02 16.1906 12.7109 3.2399 16.1906 12.7109 52.4223 0 0 1 0.0017009 0.000552016 0.00258019 -28.1469 20.6915 -19.5898 
10151 638 7 12.01 0.35 14.6669 12.4464 4.22811 14.6669 12.4464 53.4105 0 0 1 -0.00530017 0.00166099 -0.0030255 -4.25043 11.5782 -6.99679 
10153 638 8 19 -0.16 14.0598 13.6087 4.33342 14.0598 13.6087 53.5158 0 0 1 -0.00379555 0.000152743 0.00429893 11.1027 0.147242 28.0329 
10154 638 8 19 -0.16 14.8518 11.9096 5.42545 14.8518 11.9096 54.6078 0 0 1 1.59288e-05 0.00398538 0.00616391 6.47572 10.111 1.48349 
10454 665 9 24.305 2 16.0408 15.2493 0.952791 65.2232 15.2493 0.952791 1 0 0 -0.00390492 -0.0025231 0.000531246 -28.2916 10.3274 4.66183 
9829 616 8 19 -0.16 10.832 15.3034 3.20501 60.0143 15.3034 3.20501 1 0 0 -0.00522851 -0.0110253 -4.13453e-05 2.85397 13.2434 -16.7088 
9828 616 7 12.01 0.35 12.1272 15.3394 2.89647 61.3096 15.3394 2.89647 1 0 0 -0.00492513 0.0056708 0.00401461 -54.0086 -6.7505 -7.1245 
9831 616 8 19 -0.16 12.6596 16.182 3.69155 61.8419 16.182 3.69155 1 0 0 0.00417839 0.00608078 -0.00258617 14.8671 34.351 20.8706 
7196 450 3 1.008 0.03 11.0931 12.1245 5.98788 11.0931 61.3068 153.535 0 1 3 0.0188975 0.00943997 0.0286278 7.20283 1.11935 -10.6484 
9826 616 6 16 -0.53 13.9935 15.676 1.06844 63.1758 15.676 1.06844 1 0 0 0.00216992 0.000817445 -0.00566662 -7.62058 -0.622322 11.5482 
9825 616 5 32.06 1.02 12.5249 15.6846 1.1291 61.7073 15.6846 1.1291 1 0 0 -0.00263805 -0.00427108 -0.000641085 13.917 12.2085 -68.9632 
7793 488 1 16 -0.4 16.4465 16.5062 2.45229 65.6288 16.5062 2.45229 1 0 0 0.00898957 -0.00245459 -0.00402444 -19.8132 -28.5467 -24.1345 
7185 450 1 16 -0.4 10.4296 10.7625 7.25725 10.4296 59.9448 154.804 0 1 3 0.00118871 0.00316174 0.00025556 2.74142 -34.4675 38.1408 
7804 488 3 1.008 0.03 15.8563 16.5354 4.41216 65.0387 16.5354 4.41216 1 0 0 0.00258224 0.0171505 0.00224623 12.7873 1.29802 4.21765 
10159 638 8 19 -0.16 16.1931 13.6426 6.86346 16.1931 13.6426 56.0458 0 0 1 -0.000486301 -0.000748758 0.00428281 -8.70254 -13.2373 8.64237 
7192 450 3 1.008 0.03 8.96614 12.244 7.37332 8.96614 61.4264 154.92 0 1 3 0.00090343 -0.000874739 -0.0144511 7.1845 -17.5705 8.09953 
830 52 3 1.008 0.03 11.6821 16.0221 7.42049 11.6821 65.2045 -41.7619 0 1 -1 0.0106276 -0.0220912 -0.0183692 7.33168 -1.80141 13.1553 
344 22 3 1.008 0.03 22.861 8.97812 4.27951 72.0434 8.97812 151.827 1 0 3 -0.00652974 -0.00122908 -0.0141224 -6.17508 -5.78789 -20.6418 
1849 116 3 1.008 0.03 24.5869 12.9929 1.51318 24.5869 -36.1895 -96.8515 0 -1 -2 0.0389871 -0.0181744 0.0104339 9.67298 11.7785 -1.52674 
7798 488 2 12.01 0.11 18.5717 13.9186 0.460442 67.7541 13.9186 0.460442 1 0 0 -0.00275222 0.00185616 0.00494757 38.724 -1.23186 46.2073 
345 22 3 1.008 0.03 22.3294 11.4322 2.60828 71.5118 11.4322 150.155 1 0 3 -0.0137966 -0.0157475 0.00238711 -9.43681 -4.84984 3.16112 
285 18 3 1.008 0.03 24.0488 11.2303 7.27609 24.0488 11.2303 7.27609 0 0 0 0.00543741 -0.0137294 0.000965796 -0.848355 5.99641 16.9007 