ITEM: TIMESTEP
4050000
ITEM: NUMBER OF ATOMS
10479
ITEM: BOX BOUNDS pp pp pp
4.0882558190751794e-01 4.9591174418091420e+01
4.0882558190751794e-01 4.9591174418091420e+01
4.0882558190751794e-01 4.9591174418091420e+01
ITEM: ATOMS id mol type mass q x y z xu yu zu ix iy iz vx vy vz fx fy fz 
199 13 3 1.008 0.03 8.46954 4.88484 4.05037 106.834 -44.2975 4.05037 2 -1 0 0.000861626 -0.00943583 -0.00995471 -1.4374 -7.69538 2.46991 
2486 156 2 12.01 0.11 6.28627 2.82116 1.73942 -42.8961 2.82116 100.104 -1 0 2 0.00831773 -0.00649771 -0.0069625 -14.4446 -9.86475 19.7015 
195 13 2 12.01 0.14 7.75705 5.70291 4.0315 106.122 -43.4794 4.0315 2 -1 0 -0.00858702 -0.00463761 -0.00265416 -63.0739 28.5027 -11.0619 
193 13 1 16 -0.4 6.99754 5.817 5.30789 105.362 -43.3654 5.30789 2 -1 0 -0.0018437 -0.00429308 0.00720821 35.5499 5.75506 -49.0375 
452 29 2 12.01 0.14 0.915462 7.31466 1.42523 -48.2669 7.31466 99.7899 -1 0 2 0.0055558 -0.0016495 -0.00982159 12.8218 33.1228 -57.0767 
204 13 3 1.008 0.03 5.58099 4.51182 4.6901 103.946 -44.6705 4.6901 2 -1 0 0.0106975 0.00587622 -0.00790614 -4.95837 -6.09432 -19.3241 
205 13 3 1.008 0.03 6.97747 3.82487 5.503 105.342 -45.3575 5.503 2 -1 0 0.0105784 0.0141956 0.00601565 10.9229 -24.7971 3.44273 
197 13 2 12.01 0.11 6.30685 4.6355 5.45761 104.672 -44.5469 5.45761 2 -1 0 -0.0058102 0.00465034 0.00835537 -48.0605 12.8689 40.1627 
203 13 3 1.008 0.03 5.62576 4.68987 6.35678 103.99 -44.4925 6.35678 2 -1 0 -0.0136666 -0.00619987 0.00531382 24.8543 -7.55052 -17.8479 
200 13 3 1.008 0.03 7.01388 5.55461 3.12686 105.379 -43.6277 3.12686 2 -1 0 0.00514893 -0.0152521 0.0166348 40.1851 3.0337 45.6885 
8565 536 2 12.01 0.11 1.89098 1.17537 2.70326 1.89098 50.3577 -95.6614 0 1 -2 -0.00221699 0.00360706 0.000409343 16.5235 74.38 8.06516 
457 29 3 1.008 0.03 0.517653 6.46573 1.9098 -48.6647 6.46573 100.274 -1 0 2 0.0342565 -0.00421789 0.000147918 -18.718 -13.3849 13.5194 
459 29 3 1.008 0.03 4.90892 7.4725 2.49568 -44.2734 7.4725 100.86 -1 0 2 -0.0231444 -0.0261711 -0.0310464 6.00611 7.51076 -1.26015 
2482 156 1 16 -0.4 7.70527 2.82829 1.85267 -41.4771 2.82829 100.217 -1 0 2 -0.00432989 0.00285351 0.000910185 -5.25507 17.2154 25.8893 
449 29 1 16 -0.4 3.04287 6.56114 2.0878 -46.1395 6.56114 100.452 -1 0 2 0.00139731 0.00186434 -2.69391e-05 21.8373 10.0216 30.7058 
451 29 2 12.01 0.14 2.2552 7.71591 2.0772 -46.9271 7.71591 100.442 -1 0 2 0.00342423 -0.00589245 -0.00402694 -8.99784 9.77939 -17.7826 
461 29 3 1.008 0.03 4.59396 5.77188 2.89961 -44.5884 5.77188 101.264 -1 0 2 -0.0162075 -0.0139199 -0.0198847 10.9004 8.28222 5.33536 
8160 510 3 1.008 0.03 5.62894 8.47464 6.23153 5.62894 57.657 6.23153 0 1 0 -0.0033952 -0.0169689 0.0122844 19.0698 4.7545 11.7526 
8571 536 3 1.008 0.03 2.89707 1.55073 2.97068 2.89707 50.7331 -95.394 0 1 -2 0.0134466 -0.00646215 0.0308258 -8.42059 -0.610587 -12.9171 
460 29 3 1.008 0.03 3.98941 7.00005 3.9655 -45.1929 7.00005 102.33 -1 0 2 -0.0241708 0.00313609 -0.00915134 -4.6714 7.31248 9.67114 
8561 536 1 16 -0.4 1.75365 0.698966 1.42784 1.75365 49.8813 -96.9369 0 1 -2 -0.0021772 0.00648356 0.000138692 -13.837 -33.3407 -24.0689 
2494 156 3 1.008 0.03 5.73095 3.27044 2.59263 -43.4514 3.27044 100.957 -1 0 2 0.0148992 0.0206494 0.0354457 14.5305 -0.833989 -10.8868 
453 29 2 12.01 0.11 4.19724 6.79165 2.93259 -44.9851 6.79165 101.297 -1 0 2 -0.00226814 -0.00229038 -0.0041543 -20.95 -40.8912 -30.7839 
8567 536 3 1.008 0.03 1.34708 2.58837 0.60805 1.34708 51.7707 -97.7566 0 1 -2 -0.00420271 0.0202977 -0.00106741 2.92668 -5.79023 2.80085 
456 29 3 1.008 0.03 2.78331 8.48509 1.48422 -46.399 8.48509 99.8489 -1 0 2 0.0483859 0.00157279 -0.0183388 -7.66141 -4.43382 5.41323 
455 29 3 1.008 0.03 2.07311 8.13231 3.07228 -47.1092 8.13231 101.437 -1 0 2 0.00374909 0.0191073 -0.00795928 1.14961 -3.94701 -1.01156 
8572 536 3 1.008 0.03 1.14855 1.96095 2.98206 1.14855 51.1433 -95.3826 0 1 -2 0.00346639 -0.0177013 0.0110597 8.87901 -13.7249 -7.07709 
196 13 2 12.01 0.14 8.54767 7.00898 3.78499 106.912 -42.1734 3.78499 2 -1 0 0.00752583 0.00438321 -0.000344483 7.59579 -0.428835 22.9665 
194 13 1 16 -0.4 7.80253 7.95754 3.01597 106.167 -41.2248 3.01597 2 -1 0 0.00286642 -0.00093538 0.00178778 -10.486 6.51154 -14.6052 
2495 156 3 1.008 0.03 5.89654 3.20975 0.813835 -43.2858 3.20975 99.1785 -1 0 2 -0.00609948 -0.0223202 -0.00807407 0.510009 9.55103 -7.02399 
8159 510 3 1.008 0.03 7.31699 8.03111 6.55512 7.31699 57.2135 6.55512 0 1 0 -0.00568614 -0.00221958 0.0030631 20.8761 0.38008 -13.0865 
8726 546 2 12.01 0.11 1.79414 7.80961 6.57452 50.9765 -90.5551 55.7569 1 -2 1 -0.00466858 0.00316085 0.000871417 14.1909 -26.3629 -36.5716 
2484 156 2 12.01 0.14 8.32818 2.60589 0.638386 -40.8542 2.60589 99.0031 -1 0 2 -0.00149014 -0.00147686 0.00364419 12.828 12.6199 -5.98938 
5437 340 3 1.008 0.03 8.05933 2.25837 7.40792 -41.123 2.25837 -41.7744 -1 0 -1 0.0121384 -0.00511733 -0.0016671 -1.5181 5.11779 3.53344 
8736 546 3 1.008 0.03 0.778897 7.40833 6.54385 49.9612 -90.9564 55.7262 1 -2 1 -0.0110198 -0.0430533 0.0155132 3.27846 -4.30957 0.834276 
5008 313 3 1.008 0.03 6.28522 0.891944 4.76746 -92.0795 0.891944 4.76746 -2 0 0 -0.0196691 0.02549 0.00146281 2.33661 -4.64492 7.32444 
8477 530 3 1.008 0.03 4.51174 5.07679 0.485875 102.876 250.989 0.485875 2 5 0 0.000151109 0.0126965 -0.0189057 1.3925 2.60111 3.17266 
2496 156 3 1.008 0.03 5.96539 1.7847 1.75216 -43.217 1.7847 100.117 -1 0 2 0.00122876 -0.00957772 -0.0122869 -0.0186443 -4.19494 -1.08748 
8734 546 3 1.008 0.03 2.5184 6.95247 6.39492 51.7008 -91.4122 55.5773 1 -2 1 0.0001164 0.0319674 -0.00551112 -18.6062 25.7324 1.42332 
5003 313 3 1.008 0.03 10.8822 1.23382 4.70235 -87.4825 1.23382 4.70235 -2 0 0 -0.0143438 0.0288505 2.14876e-05 -7.90417 6.61995 -7.27162 
5004 313 3 1.008 0.03 9.69103 2.38225 3.93869 -88.6737 2.38225 3.93869 -2 0 0 -0.00662475 0.00643044 -0.000651027 5.95328 5.11929 3.47172 
2570 161 3 1.008 0.03 12.462 8.01323 7.2469 -36.7203 -90.3515 7.2469 -1 -2 0 0.00297263 0.0286794 -0.0203235 -4.01642 -8.91344 -6.74749 
8334 521 3 1.008 0.03 14.4767 3.41696 1.2081 112.841 52.5993 50.3904 2 1 1 0.016159 -0.00169943 0.0213294 2.71725 -29.7948 2.68682 
201 13 3 1.008 0.03 8.82755 7.51783 4.73966 107.192 -41.6645 4.73966 2 -1 0 0.00415029 -0.0172058 -0.0141088 -0.396286 -15.1197 -13.3653 
202 13 3 1.008 0.03 9.44893 6.5793 3.32557 107.814 -42.603 3.32557 2 -1 0 0.00297246 -0.00613683 0.0290137 0.748997 23.9482 -6.21867 
2493 156 3 1.008 0.03 11.656 5.09358 1.25863 -37.5263 5.09358 99.6233 -1 0 2 -0.0149363 -0.0146043 0.0231309 9.82076 11.2457 -2.51183 
1547 97 3 1.008 0.03 11.467 4.83406 6.53901 60.6494 -44.3483 -42.6433 1 -1 -1 -0.0143352 0.0142322 0.00442271 35.959 -6.76714 31.3371 
1540 97 2 12.01 0.14 12.9261 7.7686 3.95266 62.1085 -41.4137 -45.2297 1 -1 -1 0.00484789 0.00353498 -0.00504615 -21.9029 19.2219 39.1739 
1538 97 1 16 -0.4 12.0123 8.0833 2.92246 61.1947 -41.0991 -46.2599 1 -1 -1 -0.00362867 -0.00302279 -0.004017 20.6996 7.72017 -31.6618 
1545 97 3 1.008 0.03 12.6639 8.46422 4.79377 61.8462 -40.7181 -44.3886 1 -1 -1 0.0270093 0.0250384 0.0417215 9.01978 -7.92923 -19.2552 
1539 97 2 12.01 0.14 12.7092 6.40445 4.5941 61.8915 -42.7779 -44.5883 1 -1 -1 0.00641274 0.00241597 -0.00344998 1.67745 -5.34744 22.2452 
1543 97 3 1.008 0.03 13.4478 6.33515 5.43457 62.6301 -42.8472 -43.7478 1 -1 -1 0.000182031 0.0116405 0.0133836 -10.8363 -10.9927 -18.7201 
1544 97 3 1.008 0.03 12.7039 5.56624 3.91199 61.8863 -43.6161 -45.2704 1 -1 -1 0.0113242 -0.00290246 0.0075849 13.5886 -3.31816 -6.77982 
1537 97 1 16 -0.4 11.4228 6.41517 5.16744 60.6052 -42.7672 -44.0149 1 -1 -1 -0.00410262 0.00588589 0.00261725 -15.068 15.3279 8.54009 
1541 97 2 12.01 0.11 10.9091 5.24438 5.78501 60.0915 -43.938 -43.3973 1 -1 -1 -0.000527973 -3.77945e-05 -0.00794608 -3.15205 1.97043 -21.4048 
1546 97 3 1.008 0.03 13.957 7.97989 3.73378 63.1394 -41.2025 -45.4486 1 -1 -1 -0.000760306 0.0192758 -0.00191521 10.2014 -5.41272 -9.88294 
1549 97 3 1.008 0.03 10.8286 4.41399 5.09949 60.011 -44.7684 -44.0829 1 -1 -1 0.00804591 -0.00624359 0.010516 -8.76918 -0.273254 -9.25506 
2483 156 2 12.01 0.14 9.85084 2.39882 0.750194 -39.3315 2.39882 99.1149 -1 0 2 0.00274717 -0.000683482 0.00278635 1.54547 -9.25494 -12.9776 
2485 156 2 12.01 0.11 10.855 4.40852 1.43181 -38.3274 4.40852 99.7965 -1 0 2 -0.00443955 0.00929517 -0.0040062 -8.62021 -54.4942 28.8688 
4288 268 3 1.008 0.03 16.7808 4.2641 4.32601 164.328 -44.9182 -44.8563 3 -1 -1 -0.00622327 -0.0252687 0.00107146 -1.50226 -24.1561 9.39929 
2491 156 3 1.008 0.03 9.93381 4.90222 1.76168 -39.2485 4.90222 100.126 -1 0 2 0.00492769 -0.00053645 0.0115105 4.17033 0.992135 -3.49626 
4286 268 3 1.008 0.03 15.7939 3.21572 5.30588 163.341 -45.9666 -43.8765 3 -1 -1 -0.00113894 -0.00452083 -0.00655127 5.93685 -7.08281 -1.15705 
1548 97 3 1.008 0.03 9.99294 5.45056 6.30789 59.1753 -43.7318 -42.8745 1 -1 -1 0.00215938 0.00383585 -0.00777284 -14.7649 1.54442 -5.34979 
4278 268 2 12.01 0.11 16.8018 3.27796 4.87453 164.349 -45.9044 -44.3078 3 -1 -1 -0.0063996 0.00674438 -0.00648243 -6.79254 51.7067 -6.91194 
7271 455 3 1.008 0.03 16.4639 7.99424 5.0003 65.6462 7.99424 54.1826 1 0 1 0.00682331 -0.00129979 -0.02679 1.21236 -2.84762 -0.912977 
8335 521 3 1.008 0.03 14.4402 4.97242 1.86863 112.805 54.1548 51.051 2 1 1 0.0185986 0.00876264 -0.0377622 13.4082 -7.92091 -27.7682 
4997 313 2 12.01 0.11 9.85487 1.63986 4.71807 -88.5098 1.63986 4.71807 -2 0 0 -0.00126258 0.00759387 -0.00106658 31.5201 6.6115 24.2679 
8326 521 2 12.01 0.11 14.8316 4.37971 0.983415 113.196 53.5621 50.1658 2 1 1 0.00127285 -0.00366914 0.00704634 -10.4739 49.9362 6.15582 
5005 313 3 1.008 0.03 9.76638 2.06972 5.73389 -88.5983 2.06972 5.73389 -2 0 0 -0.0072589 0.00403901 0.0128155 -7.32589 0.369296 -12.7131 
2492 156 3 1.008 0.03 11.1453 3.6282 2.21512 -38.037 3.6282 100.58 -1 0 2 0.0109567 0.0153135 -0.0160572 14.4325 64.1262 -2.57074 
2488 156 3 1.008 0.03 10.2245 2.11511 1.72534 -38.9579 2.11511 100.09 -1 0 2 0.0306432 0.00732791 0.0107782 -22.5375 -36.0112 -1.8505 
8322 521 1 16 -0.4 16.2603 4.51801 0.85023 114.625 53.7004 50.0326 2 1 1 0.00407064 -0.00484979 -0.00119226 -3.43705 -3.68949 -7.94673 
4993 313 1 16 -0.4 8.97985 0.615355 4.4703 -89.3848 0.615355 4.4703 -2 0 0 0.00399269 -0.00440988 0.0062818 -41.4026 -37.5041 8.96375 
3019 189 3 1.008 0.03 15.8856 5.07149 7.35419 15.8856 -44.1109 56.5365 0 -1 1 0.0280664 0.0303868 -0.020342 3.82227 -14.3219 35.0956 
8330 521 3 1.008 0.03 16.25 6.45384 0.442196 114.615 55.6362 49.6245 2 1 1 -0.0279926 -0.0241622 -0.0169034 -1.99489 15.0304 -9.18728 
2020 127 2 12.01 0.14 23.1556 1.49697 5.72897 -26.0268 50.6793 5.72897 -1 1 0 0.000954517 -0.00409992 0.00110829 5.48646 -37.504 -16.758 
2025 127 3 1.008 0.03 22.1408 1.07089 5.67802 -27.0416 50.2532 5.67802 -1 1 0 0.000104109 -0.00675831 -0.0139254 -1.57299 17.5666 7.26887 
2019 127 2 12.01 0.14 23.7567 0.98965 7.02643 -25.4257 50.172 7.02643 -1 1 0 0.00734656 -0.00501505 -0.000314817 18.4405 22.4306 16.8988 
4273 268 1 16 -0.4 19.6227 1.1866 1.43939 167.17 -47.9958 -47.743 3 -1 -1 -0.000467185 -0.00192069 0.00371031 26.6134 37.3299 6.9473 
4951 310 3 1.008 0.03 24.4814 7.09956 0.946699 73.6638 7.09956 0.946699 1 0 0 -0.050307 -0.0277206 -0.0111272 -8.36223 0.63308 -4.17217 
4281 268 3 1.008 0.03 18.9758 2.67087 3.88221 166.523 -46.5115 -45.3001 3 -1 -1 0.0315633 0.0106967 0.0208332 42.6698 2.15023 22.1969 
4276 268 2 12.01 0.14 18.2847 2.52043 3.14105 165.832 -46.6619 -46.0413 3 -1 -1 0.00153377 0.000468971 0.00459998 -60.0472 -9.6757 -29.4773 
7265 455 1 16 -0.4 16.9382 8.37497 3.08342 66.1206 8.37497 52.2658 1 0 1 -0.000706162 -0.00227586 0.000377381 13.9815 -13.1611 -58.1055 
4282 268 3 1.008 0.03 18.2444 3.44827 2.48906 165.791 -45.7341 -46.6933 3 -1 -1 -0.0375612 -0.0290074 0.00521016 -2.55641 -22.8877 19.1855 
7269 455 2 12.01 0.11 17.8268 7.26513 2.80935 67.0091 7.26513 51.9917 1 0 1 -0.000937828 -0.00496758 -0.00260465 -39.2206 12.7527 25.1415 
7277 455 3 1.008 0.03 17.9407 7.02279 1.77806 67.1231 7.02279 50.9604 1 0 1 0.0204459 0.00823027 -0.00356358 2.31478 5.84405 -13.2563 
7275 455 3 1.008 0.03 18.8056 7.34107 3.24502 67.9879 7.34107 52.4274 1 0 1 0.00829415 0.0208212 -0.0172617 8.10379 1.25225 8.76919 
2022 127 2 12.01 0.11 22.9301 0.698669 3.48721 -26.2522 49.881 3.48721 -1 1 0 -0.00882592 0.00441425 -0.000492534 9.11535 47.0412 8.71024 
7276 455 3 1.008 0.03 17.2292 6.46377 3.23674 66.4116 6.46377 52.4191 1 0 1 0.012943 0.00396229 0.00799646 12.5503 -11.0597 2.30163 
4287 268 3 1.008 0.03 17.5234 3.51569 5.69787 165.07 -45.6667 -43.4845 3 -1 -1 -0.00844344 0.0211104 0.0122947 -5.72231 -21.3933 -16.5134 
4274 268 1 16 -0.4 17.0426 2.25722 3.90146 164.59 -46.9251 -45.2809 3 -1 -1 -0.00140075 0.00309071 0.0031049 35.4927 15.8295 -8.31501 
4952 310 3 1.008 0.03 22.7551 6.75956 1.37208 71.9374 6.75956 1.37208 1 0 0 -0.0253722 0.0192195 0.00619967 13.9399 3.85767 -11.7259 
2030 127 3 1.008 0.03 23.4919 0.906259 2.56384 -25.6905 50.0886 2.56384 -1 1 0 -0.00872237 -0.0178142 -0.00337445 -4.99318 -8.73583 4.37801 
1502 94 3 1.008 0.03 22.5768 5.0341 2.98328 120.941 103.399 52.1656 2 2 1 0.00949464 -0.010377 0.0128982 -20.9144 -0.326181 -6.55077 
1503 94 3 1.008 0.03 20.9793 5.08529 3.76556 119.344 103.45 52.9479 2 2 1 0.0036662 -0.00865314 0.00826173 -1.91051 10.8008 2.13698 
1498 94 3 1.008 0.03 22.5272 4.44069 0.745185 120.892 102.805 49.9275 2 2 1 0.0148016 0.000815158 0.00750569 1.50643 -15.8567 -4.24853 
1504 94 3 1.008 0.03 21.499 3.61145 3.17767 119.864 101.976 52.36 2 2 1 -0.0110517 0.0240016 0.0181716 2.85775 4.883 -8.63341 
1490 94 1 16 -0.4 20.8135 4.95231 1.72563 119.178 103.317 50.908 2 2 1 0.00875125 0.00214967 -0.00421101 20.1419 -6.0985 4.88709 
4947 310 2 12.01 0.14 23.4727 7.53647 1.02867 72.6551 7.53647 1.02867 1 0 0 0.00555584 0.00194873 0.00183994 -14.7059 23.3318 48.0848 
4949 310 2 12.01 0.11 23.3879 7.9252 3.33774 72.5702 7.9252 3.33774 1 0 0 -0.0032084 0.00709613 -2.52145e-06 -15.8169 -9.34187 -4.58838 
1497 94 3 1.008 0.03 21.1123 3.21935 0.730923 119.477 101.584 49.9133 2 2 1 0.00268948 0.00473244 0.0164527 10.4594 -11.7286 0.00458252 
1492 94 2 12.01 0.14 21.4532 4.24131 0.674466 119.818 102.606 49.8568 2 2 1 -0.000443216 -0.000172719 0.0112936 -35.6647 49.5807 -23.1698 
1494 94 2 12.01 0.11 21.5203 4.67975 2.92317 119.885 103.044 52.1055 2 2 1 -0.00482043 0.00170842 -0.00218359 3.51978 -10.881 21.8546 
2018 127 1 16 -0.4 23.8531 0.884876 4.62828 -25.3293 50.0672 4.62828 -1 1 0 0.000429054 0.0075214 0.00300374 -16.4167 -14.648 -7.45256 
10285 647 6 16 -0.53 23.9978 5.57262 6.2543 23.9978 54.755 6.2543 0 1 0 -0.00139906 0.00238119 0.00199718 14.322 0.768356 -0.476373 
4955 310 3 1.008 0.03 22.36 7.56668 3.39865 71.5424 7.56668 3.39865 1 0 0 -0.00413086 -0.0279538 0.00900795 0.746908 -4.27783 4.99754 
4275 268 2 12.01 0.14 18.5014 1.24504 2.25535 166.048 -47.9373 -46.927 3 -1 -1 -0.00469793 0.00701377 0.0100924 10.0455 -5.45776 38.5367 
4956 310 3 1.008 0.03 24.0719 7.11279 3.48278 73.2543 7.11279 3.48278 1 0 0 -0.000804161 -0.0118329 0.0133382 7.13104 -13.0396 -6.65052 
10294 647 8 19 -0.16 24.2072 3.76935 3.28997 24.2072 52.9517 3.28997 0 1 0 -0.00344843 -0.00679951 -0.00303746 -19.5594 -11.4347 -9.00888 
4279 268 3 1.008 0.03 17.6515 1.17972 1.66551 165.199 -48.0026 -47.5168 3 -1 -1 -0.00766805 0.00898334 -0.00237795 -33.7512 -4.83925 -16.6314 
4957 310 3 1.008 0.03 23.5489 8.48547 4.21072 72.7313 8.48547 4.21072 1 0 0 -0.0101201 -0.0157171 -0.0148604 1.96993 25.6979 14.6193 
4945 310 1 16 -0.4 23.5133 8.59006 2.08909 72.6956 8.59006 2.08909 1 0 0 0.0019095 0.000797474 0.00314883 -3.24767 -20.4431 -38.4012 
2032 127 3 1.008 0.03 22.168 1.51813 3.47886 -27.0143 50.7005 3.47886 -1 1 0 -0.020398 -0.00255952 -0.000545565 12.0793 -16.0251 0.0229909 
2026 127 3 1.008 0.03 23.2073 2.56501 5.64468 -25.9751 51.7474 5.64468 -1 1 0 0.00437511 0.00121874 -0.0102732 -6.78844 12.8951 -1.08831 
10123 636 8 19 -0.16 0.621977 14.1759 1.71744 0.621977 14.1759 50.8998 0 0 1 -0.00228743 -0.00505479 -0.00114002 -2.80718 18.0202 15.1572 
6430 402 3 1.008 0.03 0.52491 16.0643 5.39377 49.7073 -82.3004 5.39377 1 -2 0 -0.0130752 -0.00291483 0.00347216 -20.1386 -13.8285 -14.1158 
8731 546 3 1.008 0.03 3.2412 12.6032 2.7316 52.4235 -85.7615 51.9139 1 -2 1 0.0236359 0.00117742 0.02171 -2.9307 7.66283 -4.37034 
8150 510 2 12.01 0.11 6.51169 8.62457 6.90678 6.51169 57.8069 6.90678 0 1 0 0.00561747 0.00434694 0.00297176 -32.8003 8.56191 11.6285 
8727 546 3 1.008 0.03 2.78363 11.8857 5.02823 51.966 -86.479 54.2106 1 -2 1 -0.00128345 -0.0112485 0.00221239 -12.8326 10.2368 9.67346 
8732 546 3 1.008 0.03 3.23104 11.4729 1.38612 52.4134 -86.8918 50.5685 1 -2 1 -0.0245017 0.0276501 -0.013579 -17.0061 1.58931 23.4933 
5924 371 2 12.01 0.14 6.82203 12.9941 1.88377 6.82203 111.359 100.248 0 2 2 -0.004173 -0.00116643 0.000851133 11.6104 14.3575 -24.2958 
8721 546 1 16 -0.4 3.13528 10.7268 3.43038 52.3176 -87.6379 52.6127 1 -2 1 0.00227091 0.00837064 0.00420622 -34.6016 15.1713 -8.22478 
8725 546 2 12.01 0.11 2.75153 11.6998 2.38217 51.9339 -86.6649 51.5645 1 -2 1 0.00431933 0.00116232 -0.00562825 63.8938 -27.8356 24.0857 
5930 371 3 1.008 0.03 6.16689 13.8797 1.79048 6.16689 112.244 100.155 0 2 2 0.00714556 -0.0053437 -0.0301803 7.11683 -13.3225 2.22839 
5925 371 2 12.01 0.11 6.24945 12.8273 5.4638 6.24945 111.192 103.828 0 2 2 -0.0129654 0.00219774 -0.0121309 -2.81745 22.2676 -5.24482 
5932 371 3 1.008 0.03 6.69648 11.8848 5.62878 6.69648 110.25 103.993 0 2 2 0.0383426 -0.0158971 0.00105258 2.67059 -25.8176 3.99582 
8723 546 2 12.01 0.14 2.41831 10.9259 4.69563 51.6007 -87.4388 53.878 1 -2 1 0.00503253 0.000163432 -0.0061253 44.3926 -18.7344 -41.173 
5923 371 2 12.01 0.14 6.59452 12.3414 3.28369 6.59452 110.706 101.648 0 2 2 -0.00033308 -0.00832153 0.0106217 26.2383 27.4208 -40.3779 
5928 371 3 1.008 0.03 5.7559 11.6585 3.3705 5.7559 110.023 101.735 0 2 2 0.029133 -0.0275234 -0.00774553 -3.38569 -4.53411 -5.4582 
5927 371 3 1.008 0.03 7.55164 11.8942 3.43625 7.55164 110.259 101.801 0 2 2 -0.0229401 0.0025115 -0.00816482 4.56291 -22.336 9.95428 
5921 371 1 16 -0.4 6.55952 13.3799 4.20595 6.55952 111.745 102.571 0 2 2 -0.00483218 -0.0138935 -0.000724016 -5.15098 3.20079 14.1706 
8728 546 3 1.008 0.03 1.35857 10.7718 4.58778 50.5409 -87.5929 53.7701 1 -2 1 -0.00126876 0.00961044 0.0296586 -12.4344 22.5088 -7.00793 
5933 371 3 1.008 0.03 6.62149 13.4135 6.25485 6.62149 111.778 104.62 0 2 2 0.00184994 0.0224281 -4.97538e-05 11.9096 19.8161 13.8298 
8158 510 3 1.008 0.03 6.7612 9.70392 7.03999 6.7612 58.8863 7.03999 0 1 0 -0.0145777 0.0135415 0.00774852 -1.02886 -16.822 -12.2582 
5931 371 3 1.008 0.03 5.19198 12.8699 5.6193 5.19198 111.235 103.984 0 2 2 -0.0110602 -0.009562 -0.0159754 -14.9797 -11.6915 -0.178199 
8733 546 3 1.008 0.03 1.72558 11.9079 2.33021 50.9079 -86.4568 51.5126 1 -2 1 -0.00108252 -0.00796292 0.00192592 -29.3266 -0.233887 -6.16499 
6431 402 3 1.008 0.03 2.07233 15.9196 6.09786 51.2547 -82.4451 6.09786 1 -2 0 0.0178351 0.0101619 0.00403968 10.64 -7.95591 6.86743 
6422 402 2 12.01 0.11 1.36987 16.6088 5.68292 50.5522 -81.7559 5.68292 1 -2 0 0.00151178 0.00225047 0.00148554 5.36215 36.5986 -3.01313 
8729 546 3 1.008 0.03 3.72518 9.34693 5.47695 52.9075 -89.0178 54.6593 1 -2 1 0.0240699 0.00246196 -0.00762482 32.3078 -3.39742 -8.56751 
8724 546 2 12.01 0.14 2.82049 9.83186 5.66022 52.0028 -88.5328 54.8426 1 -2 1 0.00388554 0.0110765 0.000848415 -29.6337 -11.4811 19.9759 
3959 248 3 1.008 0.03 7.3537 15.9979 4.25945 56.5361 15.9979 -44.9229 1 0 -1 0.0451199 0.0291537 0.0133532 23.25 12.3783 -7.6249 
8722 546 1 16 -0.4 1.83574 8.81958 5.54483 51.0181 -89.5451 54.7272 1 -2 1 2.55256e-05 -0.00986427 -0.00468003 -9.63814 -10.3235 11.1832 
10124 636 8 19 -0.16 1.08688 14.1678 3.77682 1.08688 14.1678 52.9592 0 0 1 -0.00298764 0.00613056 0.00790459 -24.3771 -3.8045 0.443841 
10122 636 8 19 -0.16 0.760676 15.9637 2.85428 0.760676 15.9637 52.0366 0 0 1 -0.00138473 -0.0015885 -0.000367725 -4.56123 33.2981 -11.0995 
5929 371 3 1.008 0.03 6.54882 12.35 1.04008 6.54882 110.715 99.4048 0 2 2 0.012134 -0.0343481 -0.00828004 -4.40905 -4.97962 9.5734 
5922 371 1 16 -0.4 8.22945 13.358 1.59495 8.22945 111.723 99.9596 0 2 2 0.0010435 0.0049269 -9.7598e-05 -30.745 -21.2923 42.8929 
208 13 3 1.008 0.03 8.34591 9.69929 3.94814 106.711 -39.4831 3.94814 2 -1 0 -0.00696588 0.0227113 -0.00194191 4.80332 -2.39635 -30.966 
207 13 3 1.008 0.03 7.67902 9.95339 2.22303 106.044 -39.229 2.22303 2 -1 0 -0.0314571 -0.0211784 -0.0157955 15.1687 -18.2478 16.6023 
198 13 2 12.01 0.11 8.32075 9.30199 2.88965 106.685 -39.8804 2.88965 2 -1 0 -0.00470411 0.00166141 -0.00357247 -20.1765 -17.3441 19.6952 
8730 546 3 1.008 0.03 2.79865 10.1904 6.68624 51.981 -88.1743 55.8686 1 -2 1 0.0167074 -0.00474847 -0.0115833 2.49801 3.68268 1.61189 
3963 248 3 1.008 0.03 5.14872 16.5904 4.30763 54.3311 16.5904 -44.8747 1 0 -1 -0.00324412 0.00604358 -0.0159103 -1.65455 6.21695 -15.5798 
3960 248 3 1.008 0.03 7.28743 15.5194 2.59674 56.4698 15.5194 -46.5856 1 0 -1 -0.00394466 0.00698398 -0.00973169 15.4095 26.8304 18.2629 
3955 248 2 12.01 0.14 7.55707 16.4096 3.24437 56.7394 16.4096 -45.938 1 0 -1 0.00528981 -0.00250553 -0.00117824 -62.5429 -69.674 -1.34806 
3965 248 3 1.008 0.03 5.12084 15.9929 2.63248 54.3032 15.9929 -46.5499 1 0 -1 0.00789213 -0.0241125 -0.0109801 -16.285 -6.5575 -0.965437 
5310 332 3 1.008 0.03 5.22519 15.3442 0.620003 5.22519 15.3442 98.9847 0 0 2 0.0170691 -0.00814564 -0.0183792 7.85542 -8.45762 15.2073 
8895 556 3 1.008 0.03 8.21906 16.0367 6.73357 106.584 16.0367 -42.4488 2 0 -1 0.0151004 -0.0124704 -0.00550244 -3.66453 5.77817 -4.77669 
7280 455 3 1.008 0.03 13.3856 10.709 6.42537 62.568 10.709 55.6077 1 0 1 -0.00399896 -0.0178816 0.0327164 -7.81467 -6.33546 20.1336 
1552 97 3 1.008 0.03 13.32 9.27092 1.55509 62.5023 -39.9114 -47.6273 1 -1 -1 -0.000183895 -0.0155223 -0.00832578 16.6456 -12.8644 2.35119 
1542 97 2 12.01 0.11 12.4789 9.27285 2.22234 61.6612 -39.9095 -46.96 1 -1 -1 -0.00876105 0.00242558 0.00293625 -55.3378 11.1308 15.0788 
1551 97 3 1.008 0.03 12.578 10.0038 3.02338 61.7603 -39.1786 -46.159 1 -1 -1 -0.0291873 -0.000978127 0.0112398 11.0442 7.3789 -5.87524 
1550 97 3 1.008 0.03 11.6679 9.72572 1.60666 60.8503 -39.4566 -47.5757 1 -1 -1 -0.0240367 0.0280531 0.0227497 8.51145 -13.8949 8.61224 
4761 298 3 1.008 0.03 13.4412 14.9842 1.91858 62.6236 14.9842 1.91858 1 0 0 0.0362183 0.000490714 0.0122823 -2.03728 2.95356 3.4703 
4766 298 3 1.008 0.03 11.1094 12.2029 2.77115 60.2917 12.2029 2.77115 1 0 0 -0.00395833 -0.00311577 -0.0232593 2.9301 -26.0362 10.7908 
4758 298 2 12.01 0.11 11.6738 13.0364 2.44758 60.8561 13.0364 2.44758 1 0 0 -0.000404537 0.00113612 0.00429617 -9.67393 25.9931 -10.5428 
4768 298 3 1.008 0.03 11.4516 13.1258 1.4083 60.6339 13.1258 1.4083 1 0 0 -0.0287194 -0.00637062 -0.0034016 1.33719 -0.491279 -17.3162 
7323 458 3 1.008 0.03 10.2295 9.4212 5.99112 59.4118 -39.7612 -43.1912 1 -1 -1 0.00585495 -0.0118736 0.0281657 10.136 -10.885 -1.42029 
7278 455 3 1.008 0.03 14.8479 11.6959 6.04507 64.0303 11.6959 55.2274 1 0 1 0.0224246 -0.00460345 0.027859 -6.39202 -5.02766 6.48254 
4767 298 3 1.008 0.03 11.118 13.8424 2.90758 60.3004 13.8424 2.90758 1 0 0 -0.0195964 0.000173114 -0.0172298 8.5103 11.1036 4.79731 
206 13 3 1.008 0.03 9.29592 9.17029 2.44018 107.661 -40.0121 2.44018 2 -1 0 -0.00971855 0.0125882 0.0103384 8.58771 9.58224 1.45289 
7325 458 3 1.008 0.03 10.696 10.92 5.08893 59.8783 -38.2624 -44.0934 1 -1 -1 -0.0167843 -0.0102411 -0.0195328 -12.1458 -7.00144 -2.61334 
7279 455 3 1.008 0.03 13.5989 11.2797 4.83427 62.7812 11.2797 54.0166 1 0 1 0.0033007 -0.000474243 -0.0104492 20.3297 -10.3492 24.5082 
7317 458 2 12.01 0.11 10.11 10.4843 5.91406 59.2924 -38.6981 -43.2683 1 -1 -1 0.00677953 -0.00105708 0.00641556 34.3749 30.784 46.3858 
7313 458 1 16 -0.4 10.5018 11.1948 7.13765 59.6841 -37.9876 -42.0447 1 -1 -1 -0.00237632 -0.00790812 0.00197147 -1.19314 -22.3743 -39.8411 
7324 458 3 1.008 0.03 9.06831 10.6357 5.90863 58.2507 -38.5467 -43.2737 1 -1 -1 0.00103149 -0.00427996 0.0337848 -25.3404 3.05764 -19.3555 
7319 458 3 1.008 0.03 10.7262 13.1546 6.34385 59.9086 -36.0277 -42.8385 1 -1 -1 -0.00667363 0.0200251 -0.00644266 -7.17917 -2.28706 -6.63852 
7315 458 2 12.01 0.14 10.1302 12.5538 7.03418 59.3125 -36.6286 -42.1482 1 -1 -1 -0.00142384 0.00247824 0.00190711 9.07264 8.68808 64.644 
7320 458 3 1.008 0.03 9.06051 12.5622 6.90295 58.2429 -36.6202 -42.2794 1 -1 -1 -0.0166157 -0.0144252 0.02053 -6.88043 9.2554 -17.7852 
7266 455 1 16 -0.4 14.8664 9.70598 5.34859 64.0488 9.70598 54.5309 1 0 1 -0.0041708 0.00776605 -0.000255238 -22.5527 1.03055 16.7381 
4753 298 1 16 -0.4 15.1506 14.5145 3.81101 64.3329 14.5145 3.81101 1 0 0 -0.0015232 0.000257213 -0.00201974 -7.95968 -8.25929 30.6906 
7270 455 2 12.01 0.11 14.171 10.8853 5.73749 63.3533 10.8853 54.9198 1 0 1 -0.000525164 0.00041213 0.00808766 -7.82253 21.4167 -57.4821 
4757 298 2 12.01 0.11 16.3731 14.5514 4.52911 65.5555 14.5514 4.52911 1 0 0 -0.000513406 -0.00345798 -0.00359842 -28.1287 27.6841 37.5071 
4763 298 3 1.008 0.03 16.3723 14.9771 5.5707 65.5547 14.9771 5.5707 1 0 0 0.00434146 0.0174751 -0.00761352 -16.5197 -13.0361 -20.6243 
4760 298 3 1.008 0.03 15.7147 12.9339 2.43265 64.8971 12.9339 2.43265 1 0 0 -0.00310375 0.0218458 -0.0243955 -8.21707 7.49701 12.2995 
4755 298 2 12.01 0.14 15.2293 13.9237 2.54709 64.4117 13.9237 2.54709 1 0 0 0.000609718 -0.00362098 7.64322e-05 35.3144 22.8404 -20.9374 
4759 298 3 1.008 0.03 15.8872 14.6359 1.99414 65.0696 14.6359 1.99414 1 0 0 -0.0193345 0.00484954 -0.0124443 -10.7098 -14.8757 2.28384 
4754 298 1 16 -0.4 13.0726 13.0524 2.68001 62.2549 13.0524 2.68001 1 0 0 -0.00143895 0.00402439 -0.00571742 -3.03714 -14.5946 10.9593 
4762 298 3 1.008 0.03 14.0038 13.6311 0.920514 63.1861 13.6311 0.920514 1 0 0 -0.00726295 -0.00741401 -0.0092885 -10.3492 2.41793 1.23054 
4756 298 2 12.01 0.14 13.8534 13.9798 1.94842 63.0358 13.9798 1.94842 1 0 0 0.00314625 0.00260183 -0.00458292 -4.28997 -13.6577 -15.1342 
7273 455 3 1.008 0.03 16.5775 10.7445 4.99393 65.7598 10.7445 54.1763 1 0 1 0.0145091 0.0233927 -0.0170105 -21.8851 -12.7372 -13.2455 
7268 455 2 12.01 0.14 15.8995 9.99932 4.47698 65.0818 9.99932 53.6593 1 0 1 -0.0028389 -3.85954e-05 -0.00437746 57.5788 29.5972 6.17925 
7274 455 3 1.008 0.03 15.6538 10.4872 3.52468 64.8361 10.4872 52.707 1 0 1 -0.0222785 -0.00992567 0.00289415 -6.53759 -8.01024 2.57106 
3962 248 3 1.008 0.03 9.70073 16.113 2.97492 58.8831 16.113 -46.2074 1 0 -1 0.00857365 0.0327085 -0.0111726 -2.45981 -16.0797 -1.6439 
8891 556 3 1.008 0.03 11.6376 16.6408 5.31695 110.002 16.6408 -43.8654 2 0 -1 0.00320452 -0.0016748 -7.46624e-05 -0.011041 2.8161 -3.16405 
8885 556 2 12.01 0.11 11.7702 16.4513 6.37791 110.135 16.4513 -42.8044 2 0 -1 -0.00533461 -0.00508041 0.00682259 18.1564 1.24699 -13.9196 
8893 556 3 1.008 0.03 11.9839 15.4119 6.40635 110.349 15.4119 -42.776 2 0 -1 -0.00397185 0.0198379 0.00451232 -2.16211 -20.1307 8.95835 
4912 307 3 1.008 0.03 24.7446 15.3717 3.45562 24.7446 15.3717 3.45562 0 0 0 -0.00466658 -0.0133083 0.00760931 10.4714 -13.4208 35.0171 
9830 616 8 19 -0.16 19.3709 12.8919 1.24398 68.5532 12.8919 1.24398 1 0 0 -0.00476227 -0.0035704 0.00103528 19.1854 0.829603 33.8536 
4902 307 2 12.01 0.11 24.5681 16.034 2.67868 24.5681 16.034 2.67868 0 0 0 0.00315807 0.00180619 0.0012119 13.9763 -21.2694 -70.3946 
4911 307 3 1.008 0.03 23.6677 15.5948 2.21988 23.6677 15.5948 2.21988 0 0 0 0.0189828 -0.0223024 -0.018902 2.7018 11.4402 3.62956 
7805 488 3 1.008 0.03 22.4081 13.6644 0.993602 71.5905 13.6644 0.993602 1 0 0 -0.00261931 -0.00999835 0.00199052 -12.6934 -3.06351 1.68604 
7267 455 2 12.01 0.14 16.8404 8.79658 4.36665 66.0228 8.79658 53.549 1 0 1 -4.9092e-06 0.00106114 0.00163135 14.3165 8.15732 45.3419 
7272 455 3 1.008 0.03 17.8409 9.07771 4.77997 67.0233 9.07771 53.9623 1 0 1 -0.0013894 0.0063715 0.0186249 -14.8501 -6.72799 -9.66055 
4764 298 3 1.008 0.03 16.8531 13.6227 4.62676 66.0354 13.6227 4.62676 1 0 0 -0.0109799 0.0248268 -0.00176874 17.8286 -23.2061 -8.12093 
4765 298 3 1.008 0.03 16.8833 15.3299 4.0678 66.0657 15.3299 4.0678 1 0 0 0.0203198 -0.031861 -0.0271354 33.7363 12.0217 -21.1685 
10148 638 5 32.06 1.02 24.0812 11.7398 4.7252 24.0812 11.7398 53.9075 0 0 1 0.00016569 0.0043815 0.00211008 -22.777 -25.9875 -37.2952 
8432 527 3 1.008 0.03 19.6614 14.622 6.21187 -78.7033 63.8043 55.3942 -2 1 1 0.0353904 0.0113873 -0.0112879 5.70239 2.1676 -5.13415 
6236 390 3 1.008 0.03 21.1036 16.0019 4.96207 21.1036 -33.1805 152.509 0 -1 3 -0.00948956 0.0194904 -0.00815586 13.3854 3.95207 -11.8518 
10154 638 8 19 -0.16 22.912 12.5915 6.85609 22.912 12.5915 56.0384 0 0 1 -0.0075433 -0.00658684 0.00705038 11.7287 -5.22562 48.0521 
9817 616 4 14.01 -0.66 18.8031 10.2011 1.22804 67.9854 10.2011 1.22804 1 0 0 0.00190248 -0.00617346 -5.58642e-05 4.56565 4.97319 3.54921 
10153 638 8 19 -0.16 22.8332 14.0391 5.40919 22.8332 14.0391 54.5915 0 0 1 0.00193383 -0.00168867 -0.00127784 19.919 6.08522 -13.2647 
9829 616 8 19 -0.16 21.0963 12.7133 2.6489 70.2787 12.7133 2.6489 1 0 0 -0.00317908 -0.00211 0.00445851 -11.7103 18.8158 -15.7179 
9827 616 6 16 -0.53 20.1273 9.88022 3.37303 69.3097 9.88022 3.37303 1 0 0 -0.00251969 -0.00330347 -0.00324212 -0.726978 22.3902 -30.8663 
10454 665 9 24.305 2 23.4416 10.3991 1.38437 72.624 10.3991 1.38437 1 0 0 -0.00163328 -0.000287692 -0.00451521 -0.99488 10.9406 10.5977 
9831 616 8 19 -0.16 19.1734 12.6323 3.39253 68.3557 12.6323 3.39253 1 0 0 -0.00396494 -0.000717946 -0.00115245 -29.6254 -2.44201 16.836 
9826 616 6 16 -0.53 21.3341 10.4855 1.3409 70.5164 10.4855 1.3409 1 0 0 -0.00275026 0.00592259 0.00241021 38.9863 -0.794323 -14.5106 
7793 488 1 16 -0.4 23.6995 12.19 0.54218 72.8818 12.19 0.54218 1 0 0 0.00312108 0.00195158 0.00010564 24.8089 -11.8501 -5.62071 
9825 616 5 32.06 1.02 20.0906 10.516 2.0486 69.273 10.516 2.0486 1 0 0 -0.00353217 -0.00445293 -0.00326016 -37.4955 -30.0651 47.616 
9828 616 7 12.01 0.35 19.8661 12.2866 2.35843 69.0484 12.2866 2.35843 1 0 0 0.00334456 0.00444752 -0.00295879 32.6921 -2.01884 -32.051 