ITEM: TIMESTEP
3850000
ITEM: NUMBER OF ATOMS
10479
ITEM: BOX BOUNDS pp pp pp
4.0882558190751794e-01 4.9591174418091420e+01
4.0882558190751794e-01 4.9591174418091420e+01
4.0882558190751794e-01 4.9591174418091420e+01
ITEM: ATOMS id mol type mass q x y z xu yu zu ix iy iz vx vy vz fx fy fz 
9034 565 3 1.008 0.03 5.18162 8.51602 3.51477 5.18162 -139.031 101.879 0 -3 2 0.0317863 -0.0206944 -0.000655669 -8.64296 -19.336 8.90728 
9030 565 2 12.01 0.11 7.36643 7.07546 3.12664 7.36643 -140.472 101.491 0 -3 2 0.00130675 -0.000243985 0.000613082 0.335553 -4.6242 29.5324 
9026 565 1 16 -0.4 6.25534 6.76323 3.92444 6.25534 -140.784 102.289 0 -3 2 0.00184179 0.0021186 0.000761346 -4.25124 -2.46452 9.15066 
9040 565 3 1.008 0.03 8.20739 6.62176 3.60267 8.20739 -140.925 101.967 0 -3 2 0.0239724 0.0115625 0.000577816 9.82929 -3.42123 4.05305 
9028 565 2 12.01 0.14 5.06707 7.40127 3.51941 5.06707 -140.146 101.884 0 -3 2 0.00344902 0.00396434 -0.00458168 6.10631 10.462 -3.39879 
9033 565 3 1.008 0.03 5.02905 7.13943 2.46427 5.02905 -140.408 100.829 0 -3 2 -0.000971643 -0.0180629 -0.00414901 -15.6035 -2.57809 -1.23353 
9027 565 2 12.01 0.14 3.89262 6.80037 4.36476 3.89262 -140.747 102.729 0 -3 2 -0.00438675 0.00429957 0.00795829 6.5845 14.8444 -31.8392 
1190 75 2 12.01 0.11 4.68994 1.3888 3.71399 4.68994 1.3888 3.71399 0 0 0 0.00217085 -0.00375627 0.00234214 19.7447 -3.27039 -9.22627 
1200 75 3 1.008 0.03 5.30037 1.80065 2.88845 5.30037 1.80065 2.88845 0 0 0 -0.00870709 -0.0109244 0.00160474 -8.43473 3.2033 9.39991 
1186 75 1 16 -0.4 3.36131 1.84234 3.68684 3.36131 1.84234 3.68684 0 0 0 0.0011968 8.26606e-06 0.000872058 -1.35559 -39.694 -17.1855 
1194 75 3 1.008 0.03 3.3068 3.1133 5.24045 3.3068 3.1133 5.24045 0 0 0 0.0124578 -0.00706331 0.0144886 14.7703 -1.00266 -0.0486849 
1188 75 2 12.01 0.14 3.17726 3.08859 4.16005 3.17726 3.08859 4.16005 0 0 0 0.00160313 0.00415949 -0.00437991 -64.0853 9.97657 38.4897 
1193 75 3 1.008 0.03 3.83387 3.77266 3.72215 3.83387 3.77266 3.72215 0 0 0 0.0241346 0.00788136 -0.00124584 11.8766 22.5943 -18.5045 
1187 75 2 12.01 0.14 1.62007 3.35975 4.06612 1.62007 3.35975 4.06612 0 0 0 -0.000491199 -0.0019118 0.00137918 35.6903 14.9106 -33.3828 
9025 565 1 16 -0.4 3.73833 7.46565 5.57158 3.73833 -140.081 103.936 0 -3 2 -0.00277566 0.000533288 -0.00722493 2.79458 -4.85857 38.0304 
9039 565 3 1.008 0.03 7.54471 8.11256 3.08652 7.54471 -139.434 101.451 0 -3 2 -0.00192117 -0.0189014 -0.00234203 6.21978 22.3241 5.0872 
1192 75 3 1.008 0.03 1.22889 3.29137 3.04057 1.22889 3.29137 3.04057 0 0 0 0.0122078 0.00391279 0.0185856 6.20855 -14.1922 4.98857 
3011 189 2 12.01 0.14 7.619 2.96342 7.36434 7.619 -46.2189 56.5467 0 -1 1 0.00620637 -0.00731583 -0.00408759 -10.4051 53.5316 -6.04416 
1185 75 1 16 -0.4 1.44165 4.72861 4.31406 1.44165 4.72861 4.31406 0 0 0 0.00326949 -0.000235372 0.00151895 -7.02795 14.8213 18.7093 
9032 565 3 1.008 0.03 2.95517 6.91224 3.82452 2.95517 -140.635 102.189 0 -3 2 -0.00218417 -0.00839202 0.0111368 -0.575985 -0.603092 -2.82149 
3010 189 1 16 -0.4 7.87268 0.819179 6.51448 7.87268 -48.3632 55.6968 0 -1 1 -0.00284467 -0.00614203 0.00320812 -2.44402 -22.2877 -22.3081 
3015 189 3 1.008 0.03 7.91468 3.35618 6.36412 7.91468 -45.8262 55.5465 0 -1 1 0.00591374 0.0013054 0.00254062 -2.39182 -5.36719 14.578 
9031 565 3 1.008 0.03 4.03765 5.7485 4.53431 4.03765 -141.799 102.899 0 -3 2 0.0160507 0.0198946 -0.0109419 6.72816 -7.45127 -5.17727 
2794 175 3 1.008 0.03 2.95437 3.00326 0.887892 52.1367 150.55 50.0702 1 3 1 -0.0278944 0.0194641 -0.00523066 12.1292 -11.0885 -2.74258 
9038 565 3 1.008 0.03 7.3234 6.70938 2.15594 7.3234 -140.838 100.521 0 -3 2 0.0228887 0.00771571 0.0190333 -5.60204 -14.0614 -32.7073 
1198 75 3 1.008 0.03 5.19787 1.62251 4.67335 5.19787 1.62251 4.67335 0 0 0 -0.00452848 -0.0240901 -0.00169694 -5.49755 -9.29705 -9.55862 
7180 449 3 1.008 0.03 1.29412 6.07129 2.18838 1.29412 55.2536 2.18838 0 1 0 0.0009166 0.00931614 -0.0153548 -5.46679 5.64459 -61.7184 
3013 189 2 12.01 0.11 5.62256 4.13806 7.3075 5.62256 -45.0443 56.4898 0 -1 1 0.00402006 0.00170089 0.000866476 -23.7271 20.2252 34.9811 
6859 429 3 1.008 0.03 8.54461 1.80536 1.86305 -40.6377 1.80536 198.592 -1 0 4 0.0121258 0.0126354 -0.00176696 2.86191 -9.69809 8.33192 
3020 189 3 1.008 0.03 6.06022 4.63848 6.46465 6.06022 -44.5439 55.647 0 -1 1 0.0306272 0.0154769 -0.00415296 -3.779 9.29672 -12.5512 
1191 75 3 1.008 0.03 1.11287 2.67313 4.7179 1.11287 2.67313 4.7179 0 0 0 -0.00676122 0.00621494 0.00435128 -13.1531 -1.54664 7.38874 
2169 136 3 1.008 0.03 5.07896 0.834705 7.02651 103.444 0.834705 56.2089 2 0 1 0.0113081 0.00721013 0.0294534 -12.5794 -5.24942 3.60286 
7169 449 1 16 -0.4 1.54411 7.58106 0.711216 1.54411 56.7634 0.711216 0 1 0 0.000191013 0.00344513 -0.00288052 7.85159 -28.4569 2.70879 
2799 175 3 1.008 0.03 4.57189 4.6785 1.55996 53.7542 152.226 50.7423 1 3 1 0.0130011 -0.0152567 -0.0010855 -0.803936 -3.17683 21.5353 
2168 136 3 1.008 0.03 2.75987 1.29802 6.95303 101.125 1.29802 56.1354 2 0 1 -0.0120484 0.0120266 -0.0296048 7.51773 -10.9815 -7.35739 
7173 449 2 12.01 0.11 1.18756 6.20206 1.02721 1.18756 55.3844 1.02721 0 1 0 -0.00139218 -0.00321542 0.00635649 -22.3702 40.0044 50.8943 
9029 565 2 12.01 0.11 2.94069 6.66847 6.47672 2.94069 -140.879 104.841 0 -3 2 0.000809263 -0.00513281 0.00124307 -21.4991 0.704373 -31.4327 
9036 565 3 1.008 0.03 1.91915 6.6843 6.05484 1.91915 -140.863 104.42 0 -3 2 0.00104759 0.0040613 -0.000656152 7.15785 5.48646 12.0949 
4569 286 3 1.008 0.03 1.44942 0.668042 1.87586 1.44942 99.0327 -47.3065 0 2 -1 -0.00680378 -0.0174247 0.00814626 23.6096 16.463 -9.97895 
9037 565 3 1.008 0.03 3.15371 5.60911 6.41507 3.15371 -141.938 104.78 0 -3 2 0.0109726 -0.0244398 -0.00772183 7.78701 -3.48118 7.61918 
5570 349 1 16 -0.4 8.30768 7.39117 7.37843 8.30768 7.39117 7.37843 0 0 0 -0.00694545 -0.00206698 0.00121415 23.2718 -9.21264 -5.76253 
7179 449 3 1.008 0.03 1.76474 5.4494 0.542257 1.76474 54.6318 0.542257 0 1 0 -0.0025517 0.0185041 0.012301 12.2734 -7.83776 -9.84482 
2790 175 2 12.01 0.11 4.92124 4.78913 0.565411 54.1036 152.336 49.7478 1 3 1 0.00245042 -0.0030027 -0.00181259 -21.185 -6.7897 -2.8549 
3021 189 3 1.008 0.03 4.53055 4.02873 7.22892 4.53055 -45.1536 56.4113 0 -1 1 -0.00187933 -0.00797449 -0.00380226 9.12216 -2.81433 -9.71533 
2800 175 3 1.008 0.03 5.9293 5.04373 0.557928 55.1116 152.591 49.7403 1 3 1 -0.00886546 -0.0126095 0.00984968 34.0556 5.14918 5.40137 
1327 83 3 1.008 0.03 8.6168 3.96865 3.71913 57.7992 3.96865 -45.4632 1 0 -1 -0.00134227 -0.0268176 0.00680124 42.6126 17.1111 -6.86152 
5575 349 3 1.008 0.03 9.70088 6.52162 5.4234 9.70088 6.52162 5.4234 0 0 0 -0.0268642 0.000635851 -0.00341644 2.81138 4.00995 -0.277469 
1504 94 3 1.008 0.03 11.5499 0.721455 7.37272 109.915 99.0862 56.5551 2 2 1 -0.00944141 -0.00610202 0.000574441 -3.07363 0.75716 9.1113 
1320 83 3 1.008 0.03 11.9221 1.12829 4.73228 61.1045 1.12829 -44.4501 1 0 -1 -0.0266522 0.0164208 0.000425444 -11.4295 -18.2789 7.77342 
1322 83 3 1.008 0.03 10.8047 2.80891 6.28872 59.9871 2.80891 -42.8936 1 0 -1 0.0196965 -0.0197069 0.0205164 -1.69129 3.9039 -13.4965 
1321 83 3 1.008 0.03 9.79586 2.24117 4.96075 58.9782 2.24117 -44.2216 1 0 -1 -0.0293742 0.0043654 0.00683031 19.7794 6.50332 2.91081 
5576 349 3 1.008 0.03 11.3846 6.8232 5.93974 11.3846 6.8232 5.93974 0 0 0 0.000146701 -0.00422182 0.00655002 -26.8969 1.71392 13.8754 
5571 349 2 12.01 0.14 10.3309 7.23269 5.96904 10.3309 7.23269 5.96904 0 0 0 0.00504308 -0.00181039 -0.0030781 22.8631 -39.9336 -6.44276 
1314 83 1 16 -0.4 10.531 4.15687 4.74186 59.7134 4.15687 -44.4405 1 0 -1 0.00526155 0.00159852 0.000443901 -10.3942 -5.22998 -20.8509 
1313 83 1 16 -0.4 13.2732 2.42424 5.10999 62.4555 2.42424 -44.0724 1 0 -1 0.00218894 -0.000361338 0.00125316 -4.19092 15.7676 20.8235 
1315 83 2 12.01 0.14 11.9647 2.18653 4.65346 61.147 2.18653 -44.5289 1 0 -1 -0.00142948 0.00413696 0.00251475 21.0635 -20.7353 -47.5549 
1316 83 2 12.01 0.14 10.7245 2.82527 5.18262 59.9068 2.82527 -43.9997 1 0 -1 0.00104422 -0.000768061 -0.00303561 -30.3341 3.19098 42.9458 
1318 83 2 12.01 0.11 9.72638 4.24329 3.53128 58.9087 4.24329 -45.6511 1 0 -1 -0.00130592 0.00560019 0.00248588 -13.1049 10.7806 39.5589 
1317 83 2 12.01 0.11 13.8019 3.62473 4.59107 62.9842 3.62473 -44.5913 1 0 -1 0.00383104 -0.00140454 0.00267621 44.2032 -22.0771 23.152 
1325 83 3 1.008 0.03 13.4543 4.50676 5.03997 62.6367 4.50676 -44.1424 1 0 -1 0.00855942 -0.00596291 0.0226511 -13.274 21.2998 13.6641 
1323 83 3 1.008 0.03 14.9114 3.60871 4.64898 64.0938 3.60871 -44.5334 1 0 -1 -0.00292864 -0.00562869 0.00766209 -15.7606 2.08943 5.29794 
1319 83 3 1.008 0.03 11.9937 2.30498 3.58047 61.176 2.30498 -45.6019 1 0 -1 0.00257103 0.0152732 0.0134823 -6.22588 0.632073 -8.09504 
1324 83 3 1.008 0.03 13.6511 3.66901 3.5862 62.8334 3.66901 -45.5961 1 0 -1 -0.00150921 -0.0317911 0.0108733 -10.5231 7.05097 -49.1813 
527 33 3 1.008 0.03 16.7938 5.11168 5.68325 115.158 5.11168 -43.4991 2 0 -1 -0.00632839 -0.0167708 -0.0123546 -6.74064 2.73745 -9.88969 
5569 349 1 16 -0.4 10.4531 8.46268 5.32061 10.4531 8.46268 5.32061 0 0 0 0.000659028 0.00155193 -0.00445319 -9.83484 15.8207 18.9601 
5581 349 3 1.008 0.03 11.8566 7.74032 4.02115 11.8566 7.74032 4.02115 0 0 0 -0.00693461 0.0309868 -0.0210525 44.4399 -13.488 7.41967 
7568 473 3 1.008 0.03 13.7861 7.6836 2.85452 13.7861 155.231 101.219 0 3 2 0.00517653 -0.00106654 0.019565 4.30615 -2.31362 32.0899 
4183 262 3 1.008 0.03 16.656 2.07632 2.41039 16.656 51.2587 51.5927 0 1 1 -0.00462758 -0.00621846 -0.0164897 2.49953 17.755 4.7644 
514 33 1 16 -0.4 16.2235 7.03847 4.98486 114.588 7.03847 -44.1975 2 0 -1 0.00767605 -0.00587286 0.00457346 -2.64049 -3.8227 -10.9146 
5579 349 3 1.008 0.03 10.2957 7.50216 3.4954 10.2957 7.50216 3.4954 0 0 0 -0.00874702 0.0125131 -0.0310909 23.8292 42.8872 17.3973 
5573 349 2 12.01 0.11 10.9729 8.25494 4.065 10.9729 8.25494 4.065 0 0 0 0.000896616 0.00457448 -0.000235721 -58.2395 -4.51842 -69.3543 
1326 83 3 1.008 0.03 10.1018 3.61773 2.74055 59.2842 3.61773 -46.4418 1 0 -1 0.0141906 -0.0198992 -0.00596526 5.77975 -4.04107 -7.70809 
1328 83 3 1.008 0.03 9.91388 5.31334 3.28437 59.0962 5.31334 -45.898 1 0 -1 0.0160914 0.00603357 0.00554633 -14.8981 -19.4443 -8.0573 
8414 526 3 1.008 0.03 15.2749 0.910042 6.24268 64.4573 0.910042 55.425 1 0 1 0.0211533 0.00408875 0.00940049 -8.11425 -6.24112 3.43416 
7554 473 1 16 -0.4 14.9468 8.26874 1.32421 14.9468 155.816 99.6889 0 3 2 -0.0033385 0.000922746 -0.00290133 15.48 7.00363 -25.769 
7558 473 2 12.01 0.11 13.7492 7.74675 1.81471 13.7492 155.294 100.179 0 3 2 0.00187926 -0.00240028 0.00541159 -30.9774 -0.77757 -19.6844 
6864 429 3 1.008 0.03 14.1301 2.35214 0.666152 -35.0522 2.35214 197.396 -1 0 4 0.0253111 -0.0112215 -0.0266121 -12.1572 -6.23068 -16.0883 
8416 526 3 1.008 0.03 16.4091 1.85964 5.40206 65.5915 1.85964 54.5844 1 0 1 -0.00584227 -0.00486926 0.00873386 2.7703 2.42775 23.6225 
7566 473 3 1.008 0.03 12.8289 8.31489 1.57223 12.8289 155.862 99.9369 0 3 2 -0.016569 -0.0142136 0.00280254 14.6674 -0.954912 -2.64983 
6852 429 2 12.01 0.14 11.9711 0.438852 0.558072 -37.2113 0.438852 197.287 -1 0 4 -0.0105403 -0.00625241 -0.00220764 -56.5366 9.76857 -18.0652 
6849 429 1 16 -0.4 10.2378 0.615602 2.11067 -38.9446 0.615602 198.84 -1 0 4 -0.00507811 0.00115751 -0.00316219 -38.6798 -0.295834 -0.33173 
8415 526 3 1.008 0.03 15.3718 2.6306 6.69353 64.5542 2.6306 55.8759 1 0 1 -0.0135784 0.019248 0.0113349 13.8929 -20.4467 -2.17671 
6861 429 3 1.008 0.03 8.70534 0.987127 3.45712 -40.477 0.987127 200.187 -1 0 4 -0.0169256 -0.0303105 -0.020096 0.291137 -0.174788 -13.0334 
6853 429 2 12.01 0.11 8.84545 0.862404 2.36537 -40.3369 0.862404 199.095 -1 0 4 0.00111863 0.00548642 0.00155102 33.9154 54.3118 28.8747 
521 33 3 1.008 0.03 16.3103 6.86958 7.02412 114.675 6.86958 -42.1582 2 0 -1 -0.0209818 -0.0212747 0.00915743 -2.44912 -22.0427 10.8984 
8406 526 2 12.01 0.11 15.967 1.71481 6.42002 65.1493 1.71481 55.6024 1 0 1 -0.00165861 0.00327191 0.00586352 -9.11931 23.3882 -18.0418 
4189 262 3 1.008 0.03 15.1695 0.956005 3.67093 15.1695 50.1384 52.8533 0 1 1 -0.0272322 0.0115533 -0.00278602 0.344588 8.93411 -8.08951 
522 33 3 1.008 0.03 15.2698 8.05581 6.54953 113.634 8.05581 -42.6328 2 0 -1 0.00939981 0.0103531 -0.0239749 -12.6629 4.2255 -11.4584 
7567 473 3 1.008 0.03 13.5908 6.72904 1.44878 13.5908 154.276 99.8135 0 3 2 -0.0145293 0.0224851 0.00753633 2.65271 1.9866 -0.83108 
516 33 2 12.01 0.14 16.2026 7.60168 6.26718 114.567 7.60168 -42.9152 2 0 -1 0.00280734 0.00185547 0.00460209 16.0873 32.6085 28.4939 
428 27 3 1.008 0.03 12.4222 4.50445 7.23453 12.4222 53.6868 56.4169 0 1 1 0.0267966 -0.00909787 -0.00410253 -10.4127 5.56504 13.9513 
5572 349 2 12.01 0.14 9.76873 7.32968 7.37336 9.76873 7.32968 7.37336 0 0 0 -0.000482035 -0.00285154 0.00153347 -5.96721 22.3529 19.7146 
7199 450 3 1.008 0.03 10.2203 8.43053 0.418325 10.2203 57.6129 147.965 0 1 3 -0.00793086 0.00269172 -0.00455743 17.321 22.016 9.64531 
8410 526 3 1.008 0.03 18.0152 3.05335 7.221 67.1975 3.05335 56.4033 1 0 1 0.0163872 -0.00373336 -0.00162532 3.81065 -5.93484 2.2158 
10458 669 9 24.305 2 24.8151 2.02197 6.54826 -24.3673 51.2043 6.54826 -1 1 0 -0.00241214 0.0041961 0.00400211 -17.5687 1.21256 -9.06431 
526 33 3 1.008 0.03 18.041 6.15395 5.17531 116.406 6.15395 -44.007 2 0 -1 0.00462697 0.0203722 0.0139102 9.54175 3.50803 -0.51829 
528 33 3 1.008 0.03 17.0792 5.45903 3.89947 115.444 5.45903 -45.2829 2 0 -1 -0.00825851 0.0134027 0.0110368 -6.04382 3.45506 19.1225 
518 33 2 12.01 0.11 17.0326 5.88131 4.9318 115.397 5.88131 -44.2505 2 0 -1 0.00119737 -0.00347222 0.000333647 8.93436 -12.811 -12.4456 
10314 649 6 16 -0.53 20.7803 1.53363 5.1764 20.7803 1.53363 5.1764 0 0 0 -0.00434301 -0.00423991 0.00119491 -4.31966 -4.71782 -26.2993 
6237 390 3 1.008 0.03 17.7579 4.80497 1.35267 17.7579 -44.3774 148.9 0 -1 3 0.00575433 -0.0107462 0.00444072 -0.54301 7.67828 8.27962 
5650 354 1 16 -0.4 24.3476 0.633529 5.08319 -24.8347 49.8159 5.08319 -1 1 0 -0.00299126 0.0013525 -0.00429418 -0.40056 19.5192 -5.8113 
10318 649 8 19 -0.16 22.2177 0.8901 2.59474 22.2177 0.8901 2.59474 0 0 0 0.00359618 0.00622131 -0.00168991 20.853 19.1253 8.50123 
10315 649 6 16 -0.53 19.2353 2.91952 3.73966 19.2353 2.91952 3.73966 0 0 0 -0.000559055 0.00455193 -0.0035179 37.3411 -7.50994 16.7249 
4180 262 2 12.01 0.14 17.5698 1.69918 0.523866 17.5698 50.8815 49.7062 0 1 1 0.000990864 -0.00428393 -0.00298066 23.2158 -17.8963 12.7259 
7807 488 3 1.008 0.03 21.2378 6.20312 2.95192 70.4201 6.20312 2.95192 1 0 0 -0.01309 0.00539681 0.00564515 -0.252253 2.85027 -14.9457 
6236 390 3 1.008 0.03 17.2821 6.54342 1.63579 17.2821 -42.6389 149.183 0 -1 3 -0.00197732 0.026288 -0.0169635 -2.58518 -0.20034 2.32539 
10312 649 4 14.01 -0.66 21.5888 3.68219 4.20918 21.5888 3.68219 4.20918 0 0 0 -0.00248648 0.000547074 0.00498696 -4.15685 -2.21833 -27.6347 
10313 649 5 32.06 1.02 20.6021 2.5091 4.11307 20.6021 2.5091 4.11307 0 0 0 0.000343184 -0.00225244 0.00258905 -42.4957 -13.6105 -0.84274 
10321 649 6 16 -0.53 23.0201 5.32129 5.15854 23.0201 5.32129 5.15854 0 0 0 -0.00162903 0.000568478 -0.00404524 17.3579 6.15141 2.24559 
10320 649 5 32.06 1.02 22.3381 4.09967 5.44784 22.3381 4.09967 5.44784 0 0 0 0.00137212 -0.00114955 -0.00191912 -13.0511 55.389 5.16746 
10322 649 6 16 -0.53 23.0989 3.05206 6.07269 23.0989 3.05206 6.07269 0 0 0 0.00159068 0.00228796 0.00438123 19.0615 -10.2813 23.8346 
10316 649 7 12.01 0.35 21.1767 1.70105 2.5523 21.1767 1.70105 2.5523 0 0 0 0.000459264 -0.0110484 0.00469653 -41.1056 9.09926 -20.8771 
10319 649 8 19 -0.16 21.2618 2.62944 1.57258 21.2618 2.62944 1.57258 0 0 0 0.00498139 -0.00496866 -0.00154367 19.8993 -23.2087 16.3857 
6229 390 2 12.01 0.11 18.0895 5.85407 1.39718 18.0895 -43.3283 148.944 0 -1 3 0.00425201 -0.00199301 -0.0012465 -1.03648 -0.929521 -56.3738 
6235 390 3 1.008 0.03 18.8998 6.00864 2.04763 18.8998 -43.1737 149.595 0 -1 3 0.0212549 0.00452853 -0.0204533 10.6872 -4.1858 28.1463 
7798 488 2 12.01 0.11 21.6893 6.32379 1.94475 70.8717 6.32379 1.94475 1 0 0 0.000344429 -0.00207735 5.55567e-05 -15.4663 -9.45979 7.00241 
7806 488 3 1.008 0.03 22.5375 5.65613 1.96396 71.7198 5.65613 1.96396 1 0 0 0.00739011 -0.0118558 0.00876546 1.68721 -10.8959 -3.93087 
7808 488 3 1.008 0.03 20.9522 6.0239 1.15285 70.1346 6.0239 1.15285 1 0 0 0.0163109 -0.00495777 -0.013112 19.3636 6.30321 13.8627 
4185 262 3 1.008 0.03 18.4177 2.35999 0.771803 18.4177 51.5423 49.9542 0 1 1 -0.0206021 0.0209921 -0.0094078 -10.3414 3.62935 -9.27317 
4951 310 3 1.008 0.03 18.4535 8.58217 3.44551 67.6359 8.58217 3.44551 1 0 0 -0.0147303 -0.00402671 -0.0209384 -19.1373 -10.1267 5.9921 
4949 310 2 12.01 0.11 20.4025 8.47417 5.0253 69.5849 8.47417 5.0253 1 0 0 0.00264393 0.00892801 -0.000464506 -27.7416 11.1274 1.00448 
4955 310 3 1.008 0.03 19.6106 7.73305 5.16727 68.7929 7.73305 5.16727 1 0 0 0.0144284 0.00621663 -0.0141309 10.5288 -1.92543 -6.26578 
5655 354 3 1.008 0.03 24.5283 2.77256 3.36084 -24.6541 51.9549 3.36084 -1 1 0 -0.0175833 -0.0304654 0.0133955 -7.50181 -0.721523 -3.01496 
4956 310 3 1.008 0.03 21.3039 8.0078 5.33601 70.4862 8.0078 5.33601 1 0 0 -0.00537284 -0.0108301 -0.00469673 17.0048 -3.20939 12.5416 
7794 488 1 16 -0.4 22.1924 7.6378 1.81137 71.3748 7.6378 1.81137 1 0 0 0.00777906 0.00452128 0.00388723 15.4569 49.8962 -8.95104 
10153 638 8 19 -0.16 23.6347 7.61299 6.52792 23.6347 7.61299 55.7103 0 0 1 -0.00382345 -0.00244354 -0.000329445 -16.1691 7.97119 1.94548 
8523 533 3 1.008 0.03 23.5521 1.86808 0.889776 72.7344 51.0504 0.889776 1 1 0 -0.0224087 -0.0221125 -0.00652892 11.3312 10.3327 -15.6232 
10325 649 8 19 -0.16 20.1501 5.58401 5.87151 20.1501 5.58401 5.87151 0 0 0 -0.000271505 0.00344605 0.002343 11.8454 -5.97211 -6.22572 
10323 649 7 12.01 0.35 20.9102 4.69628 6.51034 20.9102 4.69628 6.51034 0 0 0 0.00628784 0.00117615 -0.00363102 4.89994 31.6439 -24.4849 
5657 354 3 1.008 0.03 24.6222 0.496188 2.9258 -24.5602 49.6785 2.9258 -1 1 0 -0.0147644 0.0122846 -0.00935425 -11.6184 -6.4889 4.33894 
4184 262 3 1.008 0.03 17.8152 0.840715 2.55502 17.8152 50.0231 51.7374 0 1 1 -0.00206574 0.00312953 0.0121344 4.62269 -8.87577 -2.67657 
7802 488 3 1.008 0.03 23.7366 6.95034 0.669873 72.9189 6.95034 0.669873 1 0 0 0.00817998 0.00985708 0.0164429 -6.56701 3.85104 -9.68012 
4953 310 3 1.008 0.03 19.3685 8.49879 1.17197 68.5508 8.49879 1.17197 1 0 0 0.00562138 -0.014113 -0.0186363 -1.38001 13.4153 7.04589 
519 33 3 1.008 0.03 18.2992 8.18377 6.64774 116.664 8.18377 -42.5346 2 0 -1 0.00394968 0.0117355 0.0302361 7.64621 -8.11418 2.70855 
10326 649 8 19 -0.16 20.0994 3.74141 6.72514 20.0994 3.74141 6.72514 0 0 0 0.00449398 -0.00137751 0.000108959 -23.2011 -33.3153 23.3026 
10317 649 8 19 -0.16 20.2423 0.887391 2.10795 20.2423 0.887391 2.10795 0 0 0 0.00659016 0.000851868 -0.00143592 -8.85412 -2.48094 1.28446 
4179 262 2 12.01 0.14 17.0562 1.23334 1.88941 17.0562 50.4157 51.0718 0 1 1 0.00590884 0.00153111 0.00383394 -33.5849 -2.67897 -3.61201 
7796 488 2 12.01 0.14 23.0388 7.8044 0.635104 72.2212 7.8044 0.635104 1 0 0 -0.00743216 -0.000635465 -0.00750405 -11.6519 -39.5451 6.35933 
8402 526 1 16 -0.4 16.866 1.31579 7.43485 66.0484 1.31579 56.6172 1 0 1 0.00234115 -1.22075e-05 -0.000819942 -5.92797 22.6182 7.5709 
4634 290 3 1.008 0.03 2.97627 11.6625 7.43478 -46.2061 11.6625 -41.7476 -1 0 -1 0.035388 0.000730254 0.00571353 1.05432 -0.716512 -12.0835 
4425 277 3 1.008 0.03 1.02653 8.96399 3.70499 99.3912 8.96399 102.07 2 0 2 0.00155735 0.00298625 0.00281094 14.7238 11.3467 25.5044 
4418 277 1 16 -0.4 0.418889 10.1945 5.3681 98.7836 10.1945 103.733 2 0 2 -0.00694243 0.000323899 -0.00356533 0.329343 -33.8502 -7.70433 
598 38 2 12.01 0.11 6.52361 9.9418 0.817568 6.52361 59.1241 0.817568 0 1 0 -0.0116249 0.00551407 0.00210841 5.94992 -40.1002 -43.5178 
8478 530 3 1.008 0.03 6.53584 10.5695 5.67475 104.901 256.481 5.67475 2 5 0 -0.0202942 0.000149596 -0.0150451 15.9331 12.9416 -7.42893 
4428 277 3 1.008 0.03 1.69623 12.4608 1.1995 100.061 12.4608 99.5642 2 0 2 -0.0363572 0.0127541 -0.0178247 2.21369 4.28499 0.453139 
8889 556 3 1.008 0.03 6.66461 16.3891 7.19721 105.029 16.3891 -41.9851 2 0 -1 0.00776434 -0.027154 -8.88983e-05 -0.579496 0.00825382 -11.6476 
5001 313 3 1.008 0.03 7.37879 13.3759 0.518881 -90.9859 13.3759 0.518881 -2 0 0 -0.00947584 -0.000716223 -0.0255064 8.72507 20.2551 -28.5503 
4420 277 2 12.01 0.14 1.46644 9.6306 4.5127 99.8311 9.6306 102.877 2 0 2 0.00375035 2.99909e-05 -0.00015107 -70.6141 -3.74594 -5.3339 
4423 277 3 1.008 0.03 3.11649 10.6071 3.57023 101.481 10.6071 101.935 2 0 2 -0.0155105 0.00996895 0.0249284 1.67521 -8.42903 -0.290379 
4419 277 2 12.01 0.14 2.09717 10.8106 3.88053 100.462 10.8106 102.245 2 0 2 0.00190675 0.00803321 0.0108602 3.60794 19.2731 -36.7702 
4417 277 1 16 -0.4 1.37529 11.2495 2.68242 99.74 11.2495 101.047 2 0 2 -0.00134986 -0.00132938 -0.0020603 14.5354 -11.5899 40.8052 
4429 277 3 1.008 0.03 1.23865 13.342 2.57737 99.6033 13.342 100.942 2 0 2 0.00812698 0.0238696 -0.0342952 3.88465 4.74242 12.4307 
4421 277 2 12.01 0.11 1.85609 12.5037 2.27857 100.221 12.5037 100.643 2 0 2 0.00183764 0.00184476 -0.00272375 -23.7077 -13.3251 -36.9849 
8469 530 2 12.01 0.11 4.13267 15.2662 2.28853 102.497 261.178 2.28853 2 5 0 -0.00633322 0.00370069 0.00522887 30.7187 22.5857 30.3565 
8465 530 1 16 -0.4 4.97979 14.2318 2.81733 103.344 260.144 2.81733 2 5 0 0.00241395 0.00891272 0.00147595 -13.9168 -6.95521 9.90367 
8475 530 3 1.008 0.03 4.56978 15.808 1.45669 102.934 261.72 1.45669 2 5 0 -0.0104765 -0.0371252 0.00514582 -1.47298 -11.0485 -12.3335 
8467 530 2 12.01 0.14 4.60156 13.8403 4.16965 102.966 259.752 4.16965 2 5 0 0.00316488 0.000363838 0.000283457 -11.7014 23.3884 -39.1588 
8480 530 3 1.008 0.03 8.18864 11.3486 5.30846 106.553 257.26 5.30846 2 5 0 0.0264829 0.00561612 0.000605407 -13.8195 -3.76878 5.85732 
8468 530 2 12.01 0.14 5.15988 12.4614 4.46133 103.525 258.373 4.46133 2 5 0 0.00548218 -0.000584514 -0.00252503 23.5295 -8.33171 45.271 
8473 530 3 1.008 0.03 4.6469 12.0375 5.35054 103.012 257.949 5.35054 2 5 0 -0.0108159 -0.0270453 -0.0363071 -0.570189 3.13718 -15.3286 
8476 530 3 1.008 0.03 3.09198 15.0015 2.1338 101.457 260.913 2.1338 2 5 0 0.0262609 -0.00266006 -0.0205275 -2.47754 -0.7705 -2.67872 
4427 277 3 1.008 0.03 2.90894 12.6086 2.3828 101.274 12.6086 100.747 2 0 2 0.0095701 0.0125494 0.00600846 15.9052 7.8476 5.9846 
8471 530 3 1.008 0.03 5.10984 14.4693 4.86872 103.475 260.381 4.86872 2 5 0 -0.00238811 0.009722 -0.000488842 -4.3087 16.9924 8.92183 
8470 530 2 12.01 0.11 7.13185 11.2358 4.9975 105.497 257.148 4.9975 2 5 0 0.00481645 0.00200977 0.000777187 9.05757 -23.6054 16.7346 
8472 530 3 1.008 0.03 3.48071 14.0173 4.21238 101.845 259.929 4.21238 2 5 0 0.0106197 -0.0102618 -0.0113119 28.06 -18.6063 13.3165 
8477 530 3 1.008 0.03 4.21667 16.0712 3.04147 102.581 261.983 3.04147 2 5 0 0.0271695 -0.00903013 -0.0303551 -12.6529 -7.47781 -4.53031 
8466 530 1 16 -0.4 6.56223 12.5014 4.88831 104.927 258.413 4.88831 2 5 0 0.00319719 -0.00427768 -0.00306869 -32.9977 19.0018 -19.1904 
8474 530 3 1.008 0.03 5.0399 11.8198 3.6277 103.405 257.732 3.6277 2 5 0 0.0118051 3.38478e-05 0.0214488 -4.18763 -13.7125 -16.0884 
8895 556 3 1.008 0.03 7.12941 15.5422 4.9303 105.494 15.5422 -44.2521 2 0 -1 -0.0122966 0.00522828 -0.0149752 8.88084 5.36996 1.39929 
4426 277 3 1.008 0.03 2.12617 9.12825 5.16834 100.491 9.12825 103.533 2 0 2 0.000330578 -0.014087 -0.00714657 13.8109 -12.2181 5.76793 
4424 277 3 1.008 0.03 2.19974 11.5602 4.64213 100.564 11.5602 103.007 2 0 2 0.0154857 -7.22853e-05 -0.0166503 -1.90885 14.3812 3.98795 
8479 530 3 1.008 0.03 7.20792 10.7275 4.05151 105.573 256.639 4.05151 2 5 0 -0.00790434 -0.0134531 0.030841 -4.58542 -1.38837 -10.512 
606 38 3 1.008 0.03 7.01716 10.8017 1.1536 7.01716 59.9841 1.1536 0 1 0 0.000203351 -0.00034838 0.0237424 11.6627 26.1572 9.8776 
7687 481 3 1.008 0.03 4.73125 14.9325 7.35199 4.73125 162.48 7.35199 0 3 0 0.001855 -0.011654 0.000800828 4.13511 13.2761 -22.5181 
608 38 3 1.008 0.03 6.85752 9.09399 1.42103 6.85752 58.2763 1.42103 0 1 0 -0.0379197 0.0162091 -0.00411705 -6.57156 7.46258 -3.68815 
607 38 3 1.008 0.03 5.45316 10.0467 0.8668 5.45316 59.2291 0.8668 0 1 0 0.00302304 -0.00701063 -0.00119938 -9.11371 2.54162 8.7584 
10062 632 8 19 -0.16 0.471337 16.1878 5.53138 49.6537 16.1878 54.7137 1 0 1 -0.00816021 0.00496544 -0.00539046 -16.5481 15.0146 13.2625 
8896 556 3 1.008 0.03 6.37799 16.798 4.163 104.743 16.798 -45.0193 2 0 -1 -0.0238854 0.0294311 -0.0163323 -32.3925 17.6458 -15.3985 
8894 556 3 1.008 0.03 8.01874 16.5375 3.77719 106.383 16.5375 -45.4052 2 0 -1 -0.0016657 0.00890838 -0.00714392 3.32563 4.45145 4.73364 
8886 556 2 12.01 0.11 7.29248 16.5749 4.59101 105.657 16.5749 -44.5913 2 0 -1 0.00370231 0.000654761 0.00042394 16.0608 -42.1762 -6.78997 
7692 481 3 1.008 0.03 6.61294 13.8538 7.07214 6.61294 161.401 7.07214 0 3 0 -0.00527401 0.0235985 -0.0013379 3.47091 -6.16484 -1.17519 
4633 290 3 1.008 0.03 2.1389 10.1254 7.39367 -47.0434 10.1254 -41.7887 -1 0 -1 -0.0326407 0.00891683 0.00752634 -1.05143 -12.4857 -0.995556 
2609 164 1 16 -0.4 10.055 12.2404 0.521198 -39.1273 61.4228 -48.6612 -1 1 -1 0.00145155 0.00395484 0.00310343 4.67565 0.681573 33.0982 
7159 448 3 1.008 0.03 14.8311 14.2091 1.11041 14.8311 -84.1556 50.2928 0 -2 1 0.00260105 -0.00476721 0.0047524 2.73637 0.833554 5.01447 
7161 448 3 1.008 0.03 12.5871 13.1929 0.649428 12.5871 -85.1718 49.8318 0 -2 1 0.0424208 -0.00571672 0.0100318 2.37874 -17.1954 -0.87788 
5580 349 3 1.008 0.03 11.0847 9.21497 3.49723 11.0847 9.21497 3.49723 0 0 0 -0.00180059 0.00101669 -0.0177195 -3.5908 -19.6831 10.0022 
523 33 3 1.008 0.03 15.7385 10.6113 6.93028 114.103 10.6113 -42.2521 2 0 -1 -0.0117709 0.0120061 -0.0153285 -23.425 -9.42837 6.40509 
517 33 2 12.01 0.11 16.6431 10.8663 6.46444 115.008 10.8663 -42.7179 2 0 -1 -0.00301622 -0.00474493 -0.0051245 41.9029 43.1488 -12.7287 
4998 313 2 12.01 0.11 8.75696 15.6445 1.06096 -89.6077 15.6445 1.06096 -2 0 0 -0.00261057 -0.000500597 -0.00420567 -15.8883 -18.4038 -43.8569 
7556 473 2 12.01 0.14 15.2903 9.60795 1.67826 15.2903 157.155 100.043 0 3 2 0.000601694 0.00252535 -0.00572025 -25.6488 -9.37059 20.496 
7561 473 3 1.008 0.03 16.2781 9.51394 2.07502 16.2781 157.061 100.44 0 3 2 -0.013139 -0.0109964 0.00445028 12.9519 6.11738 7.7836 
7562 473 3 1.008 0.03 14.6232 9.88604 2.49097 14.6232 157.433 100.856 0 3 2 0.0407168 -0.00166124 0.0127012 3.07543 9.05761 3.01394 
5007 313 3 1.008 0.03 8.7705 14.9663 1.87742 -89.5942 14.9663 1.87742 -2 0 0 -0.00451676 0.00467621 0.0105104 -4.98134 -0.279824 25.9367 
2615 164 3 1.008 0.03 9.96288 10.5375 1.64811 -39.2195 59.7199 -47.5342 -1 1 -1 -0.012862 -0.00656174 0.0115693 -2.44987 -14.2222 -2.17368 
4673 293 1 16 -0.4 14.5538 15.2459 6.588 -34.6285 64.4282 55.7704 -1 1 1 0.00195841 0.00516239 0.00136585 -14.2505 -11.0378 -9.55434 
2612 164 2 12.01 0.14 10.0315 12.1012 2.9513 -39.1509 61.2836 -46.231 -1 1 -1 -0.00289609 -0.00541657 -0.000203059 -11.8901 12.3554 29.1936 
7559 473 3 1.008 0.03 15.5208 11.6795 0.756743 15.5208 159.227 99.1214 0 3 2 0.014396 -0.0104464 0.00654065 -2.0604 -11.5405 11.8793 
2618 164 3 1.008 0.03 10.1059 11.3507 3.72599 -39.0764 60.533 -45.4564 -1 1 -1 -0.00175416 -0.0290962 -0.00130957 -0.0341046 -4.42807 4.82922 
2623 164 3 1.008 0.03 9.28566 14.2402 4.48058 -39.8967 63.4226 -44.7018 -1 1 -1 -0.00079375 0.0409263 -0.00560832 7.77591 -12.3043 -0.497423 
2624 164 3 1.008 0.03 10.3114 12.9885 5.26977 -38.871 62.1708 -43.9126 -1 1 -1 -0.00591274 0.0035469 0.0269003 -5.64361 -2.43036 18.4919 
2614 164 2 12.01 0.11 10.3018 13.8116 4.58473 -38.8805 62.994 -44.5976 -1 1 -1 0.00373702 0.00437486 0.000222326 -24.5904 13.704 10.9235 
2610 164 1 16 -0.4 10.7546 13.2291 3.39715 -38.4278 62.4115 -45.7852 -1 1 -1 -3.64691e-05 -0.00289033 0.000395858 28.409 11.8483 -28.7925 
2622 164 3 1.008 0.03 10.866 14.6381 5.03999 -38.3163 63.8204 -44.1424 -1 1 -1 0.00988876 -0.0208642 6.92294e-08 8.25867 -9.0653 -11.1067 
4675 293 2 12.01 0.14 14.017 15.1338 5.25114 -35.1654 64.3162 54.4335 -1 1 1 0.00611409 -0.00549787 0.00144881 27.2766 -1.52134 -23.7312 
4679 293 3 1.008 0.03 13.083 15.7304 5.04771 -36.0993 64.9128 54.2301 -1 1 1 0.0349006 -0.00624714 0.00251531 21.1526 -13.6882 9.29 
4674 293 1 16 -0.4 13.078 13.0085 5.83114 -36.1044 62.1909 55.0135 -1 1 1 0.00637788 0.00221054 0.00438338 -33.6882 -0.753674 24.6508 
4676 293 2 12.01 0.14 13.8834 13.6135 4.90823 -35.2989 62.7958 54.0906 -1 1 1 -0.000386687 -0.00417692 0.00405177 23.053 -12.187 -6.42044 
4686 293 3 1.008 0.03 13.8958 11.2295 6.28423 -35.2866 60.4118 55.4666 -1 1 1 -0.0182761 -0.0171758 -0.0167195 -0.521584 -4.68794 -16.4301 
4688 293 3 1.008 0.03 12.7321 11.1053 4.77242 -36.4502 60.2877 53.9548 -1 1 1 -0.0399176 0.0158216 -0.00436789 22.1394 23.2488 26.0471 
2617 164 3 1.008 0.03 8.98874 12.3952 2.92297 -40.1936 61.5776 -46.2594 -1 1 -1 -0.015506 0.00737021 -0.0141048 -6.28063 -3.25815 -6.91204 
4687 293 3 1.008 0.03 12.2692 11.1772 6.37701 -36.9131 60.3596 55.5594 -1 1 1 0.00245754 -0.0139241 -0.0198037 -22.8326 2.75616 18.6856 
4678 293 2 12.01 0.11 13.0128 11.6031 5.76648 -36.1695 60.7855 54.9488 -1 1 1 0.0108529 -0.00340609 -0.00127803 3.89261 -27.1308 -30.4161 
7153 448 1 16 -0.4 14.1879 16.068 0.439737 14.1879 -82.2967 49.6221 0 -2 1 0.00236033 -0.00328157 0.00748634 -11.9623 -11.9998 -6.51372 
4677 293 2 12.01 0.11 15.2954 16.4086 6.8343 -33.8869 65.5909 56.0166 -1 1 1 -0.00324584 0.0134296 -0.00353065 -6.0213 19.6702 -41.0699 
4680 293 3 1.008 0.03 14.8298 15.4687 4.53644 -34.3526 64.6511 53.7188 -1 1 1 0.00677966 -0.00191184 -0.00124267 -25.1991 -0.949726 15.8637 
4685 293 3 1.008 0.03 16.1557 16.4345 6.1533 -33.0266 65.6168 55.3356 -1 1 1 -0.00905164 -0.0137193 -0.00469976 -0.240505 -1.06119 6.81449 
7555 473 2 12.01 0.14 15.2452 10.6312 0.544536 15.2452 158.178 98.9092 0 3 2 -0.0027505 0.00684995 0.000986519 -3.72554 3.86015 -36.4947 
4682 293 3 1.008 0.03 14.8237 13.023 4.84952 -34.3587 62.2053 54.0319 -1 1 1 -0.00819685 0.0383101 -0.0159905 -3.85473 20.6766 6.33066 