ITEM: TIMESTEP
1550000
ITEM: NUMBER OF ATOMS
10479
ITEM: BOX BOUNDS pp pp pp
4.0882558190751794e-01 4.9591174418091420e+01
4.0882558190751794e-01 4.9591174418091420e+01
4.0882558190751794e-01 4.9591174418091420e+01
ITEM: ATOMS id mol type mass q x y z xu yu zu ix iy iz vx vy vz fx fy fz 
5117 320 3 1.008 0.03 1.45305 0.425211 5.75805 50.6354 49.6076 54.9404 1 1 1 0.0110335 0.0134214 -0.0140841 -5.73293 -5.19771 3.2973 
917 58 2 12.01 0.11 6.79352 6.86995 2.13068 105.158 6.86995 2.13068 2 0 0 0.00510155 -0.000968431 0.00266093 12.0284 23.3681 -6.72144 
916 58 2 12.01 0.14 5.19398 8.13065 4.79652 103.559 8.13065 4.79652 2 0 0 0.00807526 -0.00234921 -0.00116046 2.93587 -0.0967906 30.3651 
915 58 2 12.01 0.14 5.5117 8.4297 3.38094 103.876 8.4297 3.38094 2 0 0 0.00455345 0.0104843 0.00279697 12.2668 49.343 -39.1147 
913 58 1 16 -0.4 6.82527 8.09925 2.88711 105.19 8.09925 2.88711 2 0 0 0.00201364 0.00978907 -0.000931477 -11.253 -19.6596 4.08778 
922 58 3 1.008 0.03 5.47232 7.09774 5.02781 103.837 7.09774 5.02781 2 0 0 -0.0150038 -0.00357452 0.0279766 1.61244 2.49916 -0.0306418 
527 33 3 1.008 0.03 5.89731 3.54346 2.00371 153.444 3.54346 2.00371 3 0 0 0.00222724 -0.00888432 0.00527869 -3.54341 12.8198 -38.0565 
6189 387 3 1.008 0.03 8.22226 1.90013 1.66743 -40.9601 51.0825 -47.5149 -1 1 -1 0.0193461 -0.0181672 -0.0125627 -11.618 4.77194 -2.87498 
1829 115 2 12.01 0.11 3.33933 4.57808 6.75685 3.33933 4.57808 -140.79 0 0 -3 0.00525802 0.00532561 0.000913304 27.2104 43.0466 -6.438 
1831 115 3 1.008 0.03 2.1229 4.35206 4.39564 2.1229 4.35206 -143.151 0 0 -3 -0.0252654 -0.00218861 0.00350114 -0.713308 15.7011 18.2787 
924 58 3 1.008 0.03 7.8186 6.42963 2.0539 106.183 6.42963 2.0539 2 0 0 0.0188908 -0.00473433 -0.00940621 -18.6277 6.45505 2.33813 
1835 115 3 1.008 0.03 3.74562 3.57579 6.73304 3.74562 3.57579 -140.814 0 0 -3 -0.0286449 0.00367314 0.0381407 9.5059 -2.33581 -1.79444 
518 33 2 12.01 0.11 5.75152 3.67107 0.876245 153.299 3.67107 0.876245 3 0 0 -0.00496529 0.00120414 -0.00409845 -15.569 11.4009 3.96932 
2166 136 2 12.01 0.11 4.89138 0.617089 3.21827 103.256 0.617089 3.21827 2 0 0 0.003257 0.00606475 -0.000460301 -11.5119 -22.8567 3.52322 
2175 136 3 1.008 0.03 5.94486 0.675614 3.47872 104.31 0.675614 3.47872 2 0 0 0.0130165 -0.0099565 -0.0100986 4.95726 -7.06629 -5.83115 
2174 136 3 1.008 0.03 4.67981 1.66103 2.96451 103.045 1.66103 2.96451 2 0 0 0.0174521 -0.0127081 -0.0095181 -10.7358 -6.52706 -0.718123 
814 51 3 1.008 0.03 3.15446 6.16529 1.26891 199.884 6.16529 1.26891 4 0 0 -0.00798151 0.00756954 -0.00338717 -2.79467 -0.386279 -1.58588 
1825 115 1 16 -0.4 1.9905 4.48623 6.61633 1.9905 4.48623 -140.931 0 0 -3 -0.000424883 -0.00487128 0.00213988 -48.9223 -12.9562 -43.0555 
9036 565 3 1.008 0.03 7.21211 4.39403 3.50031 7.21211 -93.9707 101.865 0 -2 2 -0.0227961 0.00196946 -0.0163883 9.52106 8.75383 6.30681 
9037 565 3 1.008 0.03 7.83048 3.10822 4.51365 7.83048 -95.2565 102.878 0 -2 2 0.0238475 7.69901e-05 0.00979414 22.6861 -15.5631 -3.7718 
9029 565 2 12.01 0.11 7.3764 4.06055 4.52741 7.3764 -94.3041 102.892 0 -2 2 -0.00193096 -0.00145008 0.00155267 -6.34271 -5.26674 -1.32261 
9035 565 3 1.008 0.03 6.42437 3.74128 4.88328 6.42437 -94.6234 103.248 0 -2 2 0.00559273 0.00859085 -0.00244902 -18.0974 5.50982 7.15956 
9025 565 1 16 -0.4 7.96677 4.92965 5.47884 7.96677 -93.435 103.844 0 -2 2 -0.00630227 0.00485533 -0.000445916 6.25741 20.1493 4.61188 
925 58 3 1.008 0.03 6.10579 6.19559 2.64083 104.47 6.19559 2.64083 2 0 0 -0.0177316 -0.00161031 -0.00487567 3.73437 -8.93868 -5.51521 
526 33 3 1.008 0.03 5.0389 4.49171 0.584877 152.586 4.49171 0.584877 3 0 0 0.00542826 -0.0319937 0.00101814 9.26675 -17.9946 20.7146 
920 58 3 1.008 0.03 4.75821 7.98143 2.78241 103.123 7.98143 2.78241 2 0 0 -0.00962415 -0.00954119 0.00436511 -12.7706 -11.1731 -12.5557 
921 58 3 1.008 0.03 4.09774 8.18678 4.92894 102.462 8.18678 4.92894 2 0 0 -0.0192912 -0.0254372 -0.00237073 9.82357 2.46307 0.918917 
923 58 3 1.008 0.03 6.42673 7.10823 1.09907 104.791 7.10823 1.09907 2 0 0 0.00967414 -0.0064691 0.0125808 4.65366 -8.76132 18.2107 
1827 115 2 12.01 0.14 1.57718 3.98047 5.28226 1.57718 3.98047 -142.265 0 0 -3 0.000727445 -0.00348492 0.00707336 3.96346 0.940009 0.763465 
1832 115 3 1.008 0.03 1.82579 2.93775 5.09128 1.82579 2.93775 -142.456 0 0 -3 0.0174054 -0.0123373 0.00264972 -0.524855 -4.64112 16.1177 
1836 115 3 1.008 0.03 3.72091 5.26803 5.92115 3.72091 5.26803 -141.626 0 0 -3 -0.0104296 -0.0266989 0.00177022 -4.6679 -27.0347 29.7851 
926 58 3 1.008 0.03 5.81205 7.8852 7.10898 104.177 7.8852 7.10898 2 0 0 0.0107 -0.018963 -0.0112869 11.7393 -52.6712 20.8996 
2877 180 3 1.008 0.03 9.61694 8.42552 1.67474 9.61694 57.6079 -47.5076 0 1 -1 -0.0116706 -0.00867851 -0.00862411 23.5889 -28.771 4.42381 
9040 565 3 1.008 0.03 11.4294 8.01732 7.08358 11.4294 -90.3474 105.448 0 -2 2 -0.00187651 -0.0258925 0.00930323 11.4406 14.5573 5.40309 
9032 565 3 1.008 0.03 9.31662 5.46376 4.01515 9.31662 -92.9009 102.38 0 -2 2 -0.00689977 0.0116587 -0.000898867 1.25407 18.1714 33.0199 
6108 382 3 1.008 0.03 12.7549 3.1527 7.12189 -85.6098 3.1527 -189.608 -2 0 -4 0.0119568 0.00595804 -0.00524074 36.8328 8.79665 -6.93766 
9027 565 2 12.01 0.14 9.27188 5.45026 5.1529 9.27188 -92.9144 103.518 0 -2 2 -0.00166136 0.00435287 -0.000764117 12.8104 -33.8748 -32.5499 
6181 387 2 12.01 0.11 8.97247 1.23146 2.04167 -40.2099 50.4138 -47.1407 -1 1 -1 -0.0104744 -0.00525037 -0.00266753 4.79095 -7.21482 17.0184 
2152 135 3 1.008 0.03 9.82107 0.501647 6.71854 9.82107 49.684 105.083 0 1 2 -0.0213526 0.0178832 0.0102123 -0.611022 -13.5217 12.0217 
349 22 3 1.008 0.03 9.03847 4.7291 0.87061 58.2208 4.7291 148.418 1 0 3 -0.0424603 -0.0101905 -0.00572965 -24.0174 -6.66731 9.34491 
6187 387 3 1.008 0.03 8.91761 1.25219 3.13965 -40.2647 50.4345 -46.0427 -1 1 -1 -0.00286207 -0.0141348 -0.0142884 0.605521 0.865641 -6.33256 
9028 565 2 12.01 0.14 9.6329 6.78288 5.91535 9.6329 -91.5818 104.28 0 -2 2 0.00243764 -0.00339988 -0.000482571 63.6735 -6.4033 -19.3433 
9033 565 3 1.008 0.03 10.4029 7.44583 5.34327 10.4029 -90.9189 103.708 0 -2 2 0.00768778 -0.0184458 -0.00938069 -36.1163 -35.5773 15.9683 
9034 565 3 1.008 0.03 8.82442 7.42398 6.12745 8.82442 -90.9407 104.492 0 -2 2 -0.0038938 0.00937172 -0.00716557 -23.8487 9.99805 4.76653 
338 22 1 16 -0.4 12.4009 7.42538 3.49517 61.5833 7.42538 151.042 1 0 3 0.00108541 -0.00262603 0.00285275 -16.1544 2.4623 -15.6764 
337 22 1 16 -0.4 10.6189 5.75909 1.71263 59.8012 5.75909 149.26 1 0 3 0.00367229 -0.000683034 -0.00110234 -0.982007 -5.54276 9.1442 
339 22 2 12.01 0.14 12.0134 5.94131 1.51413 61.1958 5.94131 149.061 1 0 3 -0.000403422 -0.00855694 -0.00654967 38.0648 29.5609 -33.4056 
340 22 2 12.01 0.14 12.8229 6.27697 2.77934 62.0052 6.27697 150.326 1 0 3 -0.00624511 -0.00741563 -0.00853912 5.88442 -22.9448 2.56061 
5121 321 1 16 -0.4 16.0875 4.84355 4.73524 16.0875 54.0259 4.73524 0 1 0 0.00124843 0.00303919 0.00320145 -31.5114 10.8771 0.153777 
345 22 3 1.008 0.03 12.6212 5.37208 3.31351 61.8036 5.37208 150.861 1 0 3 0.00647273 -0.00248988 -0.00894038 -1.03167 -4.46218 20.2699 
346 22 3 1.008 0.03 13.9332 6.26697 2.73314 63.1155 6.26697 150.28 1 0 3 -0.0042947 -0.000470668 0.0233317 -13.8101 0.862216 -18.0902 
5123 321 2 12.01 0.14 14.9529 3.99678 4.85597 14.9529 53.1791 4.85597 0 1 0 -0.00116046 0.0103575 0.00312034 11.8572 6.7237 -36.754 
5124 321 2 12.01 0.14 14.7544 3.19022 3.55289 14.7544 52.3726 3.55289 0 1 0 -0.000625286 0.00469344 0.00195498 -37.7913 -1.68221 -4.2675 
5127 321 3 1.008 0.03 14.9286 3.4107 5.69755 14.9286 52.5931 5.69755 0 1 0 -0.0085466 -0.010502 -0.0017793 9.11249 -29.6418 33.8878 
344 22 3 1.008 0.03 12.105 6.83606 0.906747 61.2873 6.83606 148.454 1 0 3 0.018975 -0.0101774 -0.00943941 -3.3259 2.66544 1.88144 
343 22 3 1.008 0.03 12.5806 5.25016 0.829042 61.763 5.25016 148.376 1 0 3 0.00761398 -0.0010384 -0.00655087 -20.3459 0.523489 21.8553 
5129 321 3 1.008 0.03 14.7764 3.93307 2.74826 14.7764 53.1154 2.74826 0 1 0 -0.00497724 0.00461027 -0.00689776 18.5385 -8.79861 -3.79833 
342 22 2 12.01 0.11 13.2747 7.71614 4.54187 62.4571 7.71614 152.089 1 0 3 0.00145118 0.00288779 0.00241114 -42.0738 28.387 8.00578 
9031 565 3 1.008 0.03 10.0498 4.64881 5.37844 10.0498 -93.7159 103.743 0 -2 2 0.0129293 -0.0114604 0.00957741 -23.5995 24.8783 -3.80399 
351 22 3 1.008 0.03 13.3873 6.72837 5.01168 62.5696 6.72837 152.559 1 0 3 0.0305261 -0.0069988 -0.0105395 14.6373 17.8064 18.5973 
5128 321 3 1.008 0.03 14.1471 4.63334 5.07105 14.1471 53.8157 5.07105 0 1 0 0.0099435 0.00295478 0.0107462 -22.8703 16.0043 -5.18635 
352 22 3 1.008 0.03 14.0912 8.20408 4.07196 63.2735 8.20408 151.619 1 0 3 0.0180295 0.0142325 0.00763251 29.4286 -9.13086 -3.14896 
5130 321 3 1.008 0.03 15.4264 2.31663 3.46041 15.4264 51.499 3.46041 0 1 0 0.0193891 0.0086475 -0.0245228 3.89691 16.0983 -2.56346 
9649 604 8 19 -0.16 15.5222 7.34855 7.37974 15.5222 56.5309 7.37974 0 1 0 0.00448646 0.00326716 -0.00275072 8.3981 14.7795 -13.1999 
10108 635 8 19 -0.16 15.9747 6.82974 1.39826 114.339 56.0121 1.39826 2 1 0 0.00626075 -0.00222422 -0.000842723 5.22353 -3.49938 -25.0412 
5126 321 2 12.01 0.11 13.2492 2.01073 2.16738 13.2492 51.1931 2.16738 0 1 0 -0.00411643 0.0018003 -0.00401178 7.35424 -15.9095 -13.2441 
6188 387 3 1.008 0.03 9.92077 1.68814 1.76905 -39.2616 50.8705 -47.4133 -1 1 -1 -0.00122939 -0.000204987 0.0165432 4.0744 -8.27421 -5.00933 
10107 635 8 19 -0.16 16.1273 4.87316 0.713603 114.492 54.0555 0.713603 2 1 0 0.00702479 -0.00560994 -0.00252036 -5.26122 -31.0011 7.91458 
5136 321 3 1.008 0.03 13.1836 2.78048 1.41022 13.1836 51.9628 1.41022 0 1 0 0.00718392 0.0183225 0.0358214 2.37615 0.541837 -6.0469 
5134 321 3 1.008 0.03 14.1184 1.31883 1.92828 14.1184 50.5012 1.92828 0 1 0 -0.0402425 0.00326471 0.00723432 -27.7963 17.9386 4.14103 
9026 565 1 16 -0.4 10.2886 6.31213 7.11645 10.2886 -92.0526 105.481 0 -2 2 -0.000636617 -0.00610387 -0.00230799 4.3698 26.3406 3.02423 
5122 321 1 16 -0.4 13.4047 2.70138 3.38239 13.4047 51.8837 3.38239 0 1 0 0.00189015 0.00299196 0.000895657 16.9399 0.212752 22.9835 
341 22 2 12.01 0.11 10.0806 4.84729 0.78835 59.2629 4.84729 148.335 1 0 3 -0.000981014 0.000636904 0.00342818 42.9976 -19.892 7.82937 
9648 604 7 12.01 0.35 16.4888 8.26588 7.2087 16.4888 57.4482 7.2087 0 1 0 -0.00423722 0.00182584 -0.00179645 -1.44872 0.628433 51.7495 
348 22 3 1.008 0.03 10.6426 3.87779 0.945718 59.8249 3.87779 148.493 1 0 3 0.0306045 0.0166303 -0.00217096 -20.9806 18.7205 -9.51318 
6109 382 3 1.008 0.03 11.3113 2.88106 6.25542 -87.0534 2.88106 -190.474 -2 0 -4 0.00758259 -0.00262624 0.0228538 -2.67665 0.799764 7.39647 
350 22 3 1.008 0.03 12.8292 8.57847 5.13568 62.0116 8.57847 152.683 1 0 3 0.0249917 -0.01354 0.0201335 8.09602 -37.3454 -2.99964 
2155 135 3 1.008 0.03 12.0606 0.470912 5.49884 12.0606 49.6533 103.864 0 1 2 0.0138033 -0.0267339 -0.0085851 -0.178142 11.3642 -12.0548 
5135 321 3 1.008 0.03 12.2806 1.48145 2.1081 12.2806 50.6638 2.1081 0 1 0 0.0140535 -0.0187071 -0.0219042 11.7804 0.918809 4.53577 
6101 382 2 12.01 0.11 11.7271 3.12374 7.24238 -86.6376 3.12374 -189.487 -2 0 -4 -0.00953042 -0.000568768 -0.00377378 -34.8323 -17.711 36.3732 
5133 321 3 1.008 0.03 18.0284 4.8849 5.1411 18.0284 54.0672 5.1411 0 1 0 -0.0065688 -0.0304716 0.0187062 -10.6914 -15.3368 -1.98785 
5132 321 3 1.008 0.03 17.6666 3.77968 3.81641 17.6666 52.962 3.81641 0 1 0 0.0197683 0.0144463 0.00789571 -16.8833 8.43519 10.7059 
5125 321 2 12.01 0.11 17.263 4.15376 4.78655 17.263 53.3361 4.78655 0 1 0 0.00580303 -0.011792 0.000288023 60.0258 17.1627 -24.7337 
5131 321 3 1.008 0.03 17.2233 3.33232 5.43181 17.2233 52.5147 5.43181 0 1 0 -0.00488436 0.00523275 -0.00643725 1.81738 -21.6375 23.8516 
6704 419 3 1.008 0.03 19.3542 2.37258 3.6858 19.3542 2.37258 -45.4965 0 0 -1 -0.00707766 -0.000476461 -0.0169131 7.83002 -5.42843 -5.83828 
1070 67 3 1.008 0.03 19.9385 7.20182 3.51279 19.9385 7.20182 52.6951 0 0 1 -0.0121349 -0.0163489 0.0226195 17.5825 -10.1308 -29.3682 
1072 67 3 1.008 0.03 18.4896 8.007 3.95185 18.4896 8.007 53.1342 0 0 1 -0.0332001 0.019887 -0.00313461 -9.43789 -3.06488 0.128305 
6694 419 2 12.01 0.11 19.7865 1.53469 4.23945 19.7865 1.53469 -44.9429 0 0 -1 0.0013877 0.00794237 -0.00572464 11.0954 1.57225 1.36407 
5067 317 3 1.008 0.03 22.0041 6.24511 4.34142 22.0041 104.61 4.34142 0 2 0 0.00591873 -0.0144284 -0.00635099 -26.0768 -3.32978 1.56161 
5058 317 1 16 -0.4 21.5808 2.46439 1.93774 21.5808 100.829 1.93774 0 2 0 0.00236058 0.0015514 -0.0045606 0.0583442 18.0497 3.1026 
5063 317 3 1.008 0.03 21.2334 4.7609 2.79112 21.2334 103.126 2.79112 0 2 0 -0.0103597 -0.0115255 -0.022347 -10.3651 -8.51425 -3.27639 
5059 317 2 12.01 0.14 22.1646 4.75263 2.24016 22.1646 103.117 2.24016 0 2 0 -0.000452575 -0.00230894 -0.00180476 6.77424 32.6467 23.3803 
5062 317 2 12.01 0.11 21.9496 1.21049 1.41403 21.9496 99.5752 1.41403 0 2 0 -0.00324651 -0.0104397 -0.000368873 9.2922 -54.5908 18.2709 
5066 317 3 1.008 0.03 23.3535 3.19765 1.36537 23.3535 101.562 1.36537 0 2 0 0.0259631 -0.000458093 0.0307075 -12.9903 16.6218 -14.3571 
5057 317 1 16 -0.4 23.204 4.89829 3.25571 23.204 103.263 3.25571 0 2 0 0.000853551 0.00544377 0.00151793 -28.6489 -12.8111 -35.9534 
5060 317 2 12.01 0.14 22.2977 3.56496 1.35342 22.2977 101.93 1.35342 0 2 0 -0.00229876 -0.00312239 -0.00821021 16.7 -57.743 25.6142 
1062 67 2 12.01 0.11 19.5106 7.81202 4.23811 19.5106 7.81202 53.4205 0 0 1 -0.00354266 0.00176498 -0.00482034 -14.5296 21.1168 34.3861 
2606 163 3 1.008 0.03 24.8611 1.49498 6.79043 24.8611 1.49498 154.337 0 0 3 -0.0221899 -0.00929485 -0.00920779 4.35249 9.74054 -8.33805 
1071 67 3 1.008 0.03 19.558 7.18919 5.11617 19.558 7.18919 54.2985 0 0 1 0.0130407 0.0162616 -0.00854981 -5.47723 -0.00065584 10.0435 
6703 419 3 1.008 0.03 19.7114 0.585288 3.72983 19.7114 0.585288 -45.4525 0 0 -1 0.00833313 -0.0166583 -0.0111215 -20.0803 -2.10377 -9.37012 
5061 317 2 12.01 0.11 22.9459 6.10948 3.88826 22.9459 104.474 3.88826 0 2 0 0.000806302 0.000296549 -0.0039032 25.7175 5.08634 9.06151 
5064 317 3 1.008 0.03 22.0658 5.63791 1.59014 22.0658 104.003 1.59014 0 2 0 -0.00519633 0.00829448 -0.0376777 10.8803 -6.32794 6.26233 
5069 317 3 1.008 0.03 23.1205 6.91862 3.19835 23.1205 105.283 3.19835 0 2 0 -0.00248779 0.000943378 0.0238928 4.59739 10.1267 0.178528 
6692 419 2 12.01 0.14 19.7615 0.468792 6.35023 19.7615 0.468792 -42.8321 0 0 -1 0.00642775 -0.00185363 -0.000671962 2.04425 10.0484 -10.1891 
6690 419 1 16 -0.4 19.2901 1.55461 5.55694 19.2901 1.55461 -43.6254 0 0 -1 -0.00408847 -0.00792604 0.00194194 -13.3997 -3.31206 15.2036 
6702 419 3 1.008 0.03 20.8622 1.55295 4.28669 20.8622 1.55295 -44.8957 0 0 -1 -0.0127446 0.0032256 -0.00327669 9.12407 18.4799 -1.48365 
2602 163 3 1.008 0.03 24.6051 2.94461 4.37903 24.6051 2.94461 151.926 0 0 3 0.0149337 -0.00341246 -0.0124728 -10.9111 -6.95079 -8.15439 
6133 384 2 12.01 0.11 21.133 5.12917 6.74422 -175.596 5.12917 154.291 -4 0 3 -0.00293308 -0.00316674 -0.00259852 -10.0205 24.5769 -7.37657 
10109 635 8 19 -0.16 17.7502 6.10923 0.517081 116.115 55.2916 0.517081 2 1 0 -0.00298888 0.00166649 -0.0053423 33.0005 4.77029 -3.71649 
9650 604 8 19 -0.16 17.3369 7.80666 6.31364 17.3369 56.989 6.31364 0 1 0 -0.00585127 -0.00235848 0.00393629 4.69791 2.40204 -8.16365 
5068 317 3 1.008 0.03 23.603 6.15134 4.73356 23.603 104.516 4.73356 0 2 0 -0.00502266 0.0297608 -4.2372e-05 14.2926 7.20188 4.11148 
2773 174 2 12.01 0.11 20.2405 8.04219 0.544057 118.605 -90.3225 0.544057 2 -2 0 0.00242255 0.00127259 -0.00185894 -12.7331 -24.3497 28.415 
6140 384 3 1.008 0.03 20.4293 5.09832 5.86979 -176.3 5.09832 153.417 -4 0 3 -0.0250905 -0.0302906 0.00514259 21.2726 18.765 11.5704 
2607 163 3 1.008 0.03 24.133 0.946308 5.25815 24.133 0.946308 152.805 0 0 3 -0.0212164 0.00374161 -0.0104064 1.98232 -0.843844 2.91265 
5072 317 3 1.008 0.03 22.9758 0.839323 1.70603 22.9758 99.204 1.70603 0 2 0 0.0127126 0.0197247 0.0238122 -21.2784 17.8993 -4.73528 
2776 174 3 1.008 0.03 22.9456 8.45305 1.45318 121.31 -89.9116 1.45318 2 -2 0 -0.00813076 -0.012268 0.0294711 -4.40299 9.99435 3.36888 
1063 67 3 1.008 0.03 20.3954 8.42684 6.93506 20.3954 8.42684 56.1174 0 0 1 -0.00852697 -0.0229897 0.00983374 14.7694 46.8836 3.47597 
6691 419 2 12.01 0.14 21.1474 0.79319 6.91989 21.1474 0.79319 -42.2625 0 0 -1 -0.00352433 -0.00379192 0.000709564 -11.2604 13.9396 0.795565 
6696 419 3 1.008 0.03 21.9463 0.537834 6.21357 21.9463 0.537834 -42.9688 0 0 -1 0.00315866 0.00393925 0.009958 -4.14519 -1.67811 1.1156 
2780 174 3 1.008 0.03 19.556 8.44576 1.31712 117.921 -89.9189 1.31712 2 -2 0 0.0120031 -0.0154964 0.00734201 9.19639 -7.19724 -6.56492 
2779 174 3 1.008 0.03 20.6037 7.02797 0.829613 118.968 -91.3367 0.829613 2 -2 0 0.000593806 -0.00666357 0.0318021 -8.527 17.8157 -1.73676 
6129 384 1 16 -0.4 22.1464 6.19557 6.8751 -174.583 6.19557 154.422 -4 0 3 0.00264568 0.00209463 -0.00824205 -20.1817 -16.7415 -17.076 
6695 419 3 1.008 0.03 21.2805 1.86566 7.15613 21.2805 1.86566 -42.0262 0 0 -1 0.00959261 -0.0296103 0.0084757 -8.62544 -8.38421 -5.31665 
6141 384 3 1.008 0.03 21.5315 4.16553 6.67771 -175.198 4.16553 154.225 -4 0 3 -0.0146559 -4.15575e-05 -0.00243325 21.4576 -24.4469 4.33766 
3335 209 3 1.008 0.03 1.69739 9.19999 4.78531 100.062 -39.9824 4.78531 2 -1 0 -0.0280341 -0.0202335 -0.0116606 9.1193 -6.95818 6.38159 
2889 181 3 1.008 0.03 0.587947 13.2127 3.28321 0.587947 13.2127 -45.8991 0 0 -1 0.022555 0.0204449 -0.01124 -8.33759 15.5247 10.238 
914 58 1 16 -0.4 5.87004 9.08433 5.65219 104.235 9.08433 5.65219 2 0 0 -0.0014995 -0.003528 0.00036696 -14.6498 -4.78847 -19.7812 
3333 209 2 12.01 0.11 2.58407 10.2101 2.25381 100.949 -38.9723 2.25381 2 -1 0 0.00240846 0.000657865 -0.000186123 -29.4368 -37.3569 -27.5291 
918 58 2 12.01 0.11 5.5282 8.84636 6.98776 103.893 8.84636 6.98776 2 0 0 0.00206073 0.00603142 -0.00459539 13.6716 36.1365 -9.91978 
919 58 3 1.008 0.03 5.34219 9.51457 3.15623 103.707 9.51457 3.15623 2 0 0 0.000975744 0.0029971 -0.0020907 6.10681 -18.4832 10.1191 
928 58 3 1.008 0.03 4.48326 8.93363 7.18207 102.848 8.93363 7.18207 2 0 0 0.00469975 1.7394e-05 -0.00214576 -15.686 4.5499 4.38285 
3677 230 3 1.008 0.03 4.90729 11.9002 5.08834 54.0896 11.9002 54.2707 1 0 1 -0.0169176 0.00648249 -0.017646 -12.948 -1.25494 -11.3481 
4970 311 3 1.008 0.03 7.38914 12.7025 1.96359 56.5715 -36.4798 51.1459 1 -1 1 0.00789676 -0.00237775 -0.00299933 26.9811 -0.470565 26.7781 
4968 311 3 1.008 0.03 7.22007 11.5636 4.2333 56.4024 -37.6187 53.4156 1 -1 1 0.0211914 -0.0264633 0.0169168 -18.4094 7.14405 6.99445 
3669 230 2 12.01 0.11 3.80729 12.0311 5.15135 52.9896 12.0311 54.3337 1 0 1 -0.00393728 -0.00150776 0.00423554 31.2292 -9.88478 54.7717 
3676 230 3 1.008 0.03 3.40434 11.0476 5.30673 52.5867 11.0476 54.4891 1 0 1 -0.00938212 -0.0177185 0.015 -4.23498 -8.47778 7.86601 
4964 311 2 12.01 0.14 8.22075 12.8295 2.7428 57.4031 -36.3528 51.9252 1 -1 1 -0.00234672 0.00562021 -0.00600144 11.9418 -11.5962 -39.6238 
4967 311 3 1.008 0.03 8.31649 10.6937 3.39272 57.4988 -38.4886 52.5751 1 -1 1 -0.0265915 -0.0016833 -0.0268933 9.59038 -10.9207 -11.9334 
3675 230 3 1.008 0.03 3.72694 12.6228 6.10171 52.9093 12.6228 55.2841 1 0 1 0.00995521 -0.00779263 0.0141466 -10.6201 -7.99103 -21.1865 
4963 311 2 12.01 0.14 8.18411 11.6703 3.79889 57.3665 -37.512 52.9812 1 -1 1 0.00174399 0.00565123 -0.00497314 25.2087 19.7841 42.9966 
4962 311 1 16 -0.4 8.07539 14.1124 3.3556 57.2577 -35.07 52.538 1 -1 1 -0.00557471 0.00287062 -0.00528586 -10.7716 -11.5988 2.9367 
3672 230 3 1.008 0.03 4.9681 13.3872 3.40024 54.1505 13.3872 52.5826 1 0 1 -0.013042 -0.0373743 0.0394813 -6.11142 -1.72564 -7.24865 
3336 209 3 1.008 0.03 0.962848 10.6729 4.16119 99.3275 -38.5094 4.16119 2 -1 0 0.00757687 0.00237606 -0.0175127 15.6591 -33.4427 -13.2254 
3665 230 1 16 -0.4 3.16669 12.5454 4.05043 52.349 12.5454 53.2328 1 0 1 0.00240123 -0.000297103 0.00237802 0.3739 33.1734 -13.1388 
3671 230 3 1.008 0.03 4.0582 14.3204 4.50517 53.2405 14.3204 53.6875 1 0 1 -0.0156905 -0.044114 -0.00953248 -9.11803 -1.60127 -18.3085 
3667 230 2 12.01 0.14 3.9259 13.6573 3.61621 53.1083 13.6573 52.7986 1 0 1 0.00496592 -0.00462483 0.00662514 7.3606 27.931 1.36543 
4966 311 2 12.01 0.11 8.06676 15.1798 2.4302 57.2491 -34.0025 51.6125 1 -1 1 -0.00463281 0.00266574 0.00755955 52.2714 -12.6774 30.3242 
4975 311 3 1.008 0.03 7.45498 14.926 1.6038 56.6373 -34.2563 50.7861 1 -1 1 0.00888974 -0.00176724 -0.00268597 -10.4474 8.66762 -22.8511 
3331 209 2 12.01 0.14 1.11708 9.56613 3.96106 99.4818 -39.6162 3.96106 2 -1 0 -0.00303519 -0.00187686 -0.00174972 -60.9599 12.0127 10.5385 
3340 209 3 1.008 0.03 3.0428 10.6432 3.05553 101.407 -38.5392 3.05553 2 -1 0 0.0210089 0.0158402 -0.0128571 21.4673 11.0724 21.7148 
3668 230 2 12.01 0.14 3.26789 14.4207 2.40337 52.4502 14.4207 51.5857 1 0 1 0.00132593 0.000769854 -0.00187472 8.95313 3.57164 31.7762 
3666 230 1 16 -0.4 3.47078 13.7029 1.22551 52.6531 13.7029 50.4079 1 0 1 -0.00503509 -0.00243332 0.00383196 -3.21778 -12.8542 -7.66151 
3673 230 3 1.008 0.03 2.19752 14.5275 2.57553 51.3799 14.5275 51.7579 1 0 1 0.0311483 0.00594902 0.0196742 1.49668 4.32596 3.66765 
2887 181 3 1.008 0.03 0.707568 12.7233 5.81337 0.707568 12.7233 -43.369 0 0 -1 -0.00768183 0.0125845 -0.00388797 15.2836 -10.7256 12.7964 
3329 209 1 16 -0.4 1.6756 9.20632 2.7094 100.04 -39.976 2.7094 2 -1 0 -0.00247889 0.00192137 -0.00507721 11.4767 14.9584 -1.38888 
3341 209 3 1.008 0.03 3.35833 9.70714 1.70588 101.723 -39.4752 1.70588 2 -1 0 0.004731 -0.0181557 -0.0238189 6.32385 -1.95577 -8.57088 
3674 230 3 1.008 0.03 3.7154 15.4292 2.31574 52.8978 15.4292 51.4981 1 0 1 0.0155616 0.0105208 -0.00675266 -6.72488 -10.5578 -0.0294095 
3785 237 3 1.008 0.03 7.3175 15.0192 5.63741 7.3175 64.2016 5.63741 0 1 0 -0.00444114 -0.00675882 -0.0084941 -29.451 -14.6106 -26.5343 
4976 311 3 1.008 0.03 7.8245 16.0674 2.96759 57.0068 -33.1149 52.1499 1 -1 1 -0.0399967 0.0145098 0.0194984 -23.4011 13.5095 -3.08122 
3780 237 2 12.01 0.14 8.23946 15.1776 6.07151 8.23946 64.3599 6.07151 0 1 0 -0.00972889 -0.0055888 0.00112029 40.1225 16.6939 11.9465 
4973 311 3 1.008 0.03 8.43313 11.2511 6.70738 57.6155 -37.9313 55.8897 1 -1 1 0.0134988 0.00305482 -0.0172465 -8.70865 -1.62934 6.11942 
9872 619 6 16 -0.53 5.50661 16.7388 4.98124 5.50661 65.9212 4.98124 0 1 0 -0.00306346 -0.00279048 0.00323326 -6.89504 -0.00872569 11.3663 
880 55 3 1.008 0.03 5.44337 16.7455 1.66368 -43.739 -32.4368 1.66368 -1 -1 0 -0.0329745 0.00952706 0.0131812 10.573 1.80303 1.57749 
2881 181 1 16 -0.4 0.884049 14.8205 5.58954 0.884049 14.8205 -43.5928 0 0 -1 0.0014192 -0.00126355 -0.00600699 -16.4536 -42.1141 -27.7546 
2885 181 2 12.01 0.11 1.01659 15.1907 6.91648 1.01659 15.1907 -42.2659 0 0 -1 -0.000135024 -0.00196931 -0.00367812 0.120573 -50.6331 43.4817 
3791 237 3 1.008 0.03 6.06769 14.8278 7.40718 6.06769 64.0102 7.40718 0 1 0 0.0339576 0.0162395 -0.00226697 -13.3319 -1.70708 -17.9423 
3339 209 3 1.008 0.03 2.09526 10.9263 1.5928 100.46 -38.2561 1.5928 2 -1 0 -0.00953994 0.00599583 0.0265384 0.634588 4.13919 3.8449 
2876 180 3 1.008 0.03 8.32736 9.05794 0.806578 8.32736 58.2403 -48.3758 0 1 -1 -0.0121044 -0.00450615 0.00240207 22.1788 8.62204 -5.87159 
2891 181 3 1.008 0.03 1.62989 16.0437 6.94432 1.62989 16.0437 -42.238 0 0 -1 0.0115504 -0.00296765 -0.0185649 13.5987 22.5375 7.72855 
7279 455 3 1.008 0.03 0.880754 16.6838 2.86362 99.2455 -32.4985 52.046 2 -1 1 0.00628243 -0.0169033 0.0226933 4.42548 -13.0778 -1.51995 
3778 237 1 16 -0.4 8.08146 15.5076 7.40275 8.08146 64.6899 7.40275 0 1 0 0.000717674 -0.00236223 -0.00391968 -2.73431 23.7122 38.2644 
2869 180 2 12.01 0.11 9.4273 9.19293 0.984682 9.4273 58.3753 -48.1977 0 1 -1 0.00046991 0.00574005 0.00152815 -21.2141 32.5899 -28.2667 
4961 311 1 16 -0.4 9.14679 11.9232 4.90824 58.3291 -37.2592 54.0906 1 -1 1 -0.00318649 -0.000916511 -0.00374996 -9.67326 21.1671 -52.5174 
4969 311 3 1.008 0.03 9.21335 12.7999 2.16833 58.3957 -36.3825 51.3507 1 -1 1 -0.00645165 0.00871077 0.0164201 -32.5203 0.668887 19.85 
2875 180 3 1.008 0.03 9.55182 10.0713 1.62151 9.55182 59.2536 -47.5608 0 1 -1 -0.00496376 -0.00540869 0.0142897 -2.05827 1.95681 -7.01816 
3786 237 3 1.008 0.03 8.88303 14.3289 6.09511 8.88303 63.5112 6.09511 0 1 0 0.00424651 -0.00626147 0.0261112 0.025319 -22.2507 -7.17468 
3779 237 2 12.01 0.14 9.01286 16.2822 5.36244 9.01286 65.4646 5.36244 0 1 0 -0.00235695 -0.00956859 0.00600912 13.6243 -11.4216 -15.5853 
3784 237 3 1.008 0.03 9.44949 15.8519 4.46206 9.44949 65.0343 4.46206 0 1 0 0.0214622 0.0292268 -9.2384e-05 6.77273 0.414944 6.12026 
4965 311 2 12.01 0.11 9.21079 11.0559 5.9902 58.3931 -38.1265 55.1725 1 -1 1 -0.00610843 -0.00868989 0.00497122 -2.62753 -35.4027 -11.0719 
9647 604 6 16 -0.53 15.3732 9.9601 5.63011 15.3732 59.1425 5.63011 0 1 0 0.00248567 0.00165841 0.0061763 -11.9464 -5.69559 -49.0103 
4951 310 3 1.008 0.03 12.451 9.57637 1.08594 61.6333 9.57637 1.08594 1 0 0 0.00595622 0.0197575 0.00832226 2.50708 13.3172 -6.51834 
4974 311 3 1.008 0.03 9.14647 15.3872 2.24466 58.3288 -33.7952 51.427 1 -1 1 0.00651273 -0.0126351 -0.0171395 -18.7142 -9.23999 -17.9335 
9825 616 5 32.06 1.02 12.6432 14.8876 1.71925 61.8255 14.8876 1.71925 1 0 0 -0.00365162 -0.00141352 -0.00336346 38.2236 -8.25821 -39.1767 
9827 616 6 16 -0.53 12.2342 15.1563 3.04311 61.4166 15.1563 3.04311 1 0 0 -0.00174863 0.00301866 0.00228745 -8.19441 3.97703 37.136 
4947 310 2 12.01 0.14 12.7441 10.6416 0.947483 61.9264 10.6416 0.947483 1 0 0 -0.00253958 0.00395091 0.0114956 7.18109 -55.1993 -43.6733 
4956 310 3 1.008 0.03 13.2726 10.7187 4.14854 62.4549 10.7187 4.14854 1 0 0 -0.0254427 -0.0256596 0.0165927 -5.98017 -2.77895 -10.0428 
4955 310 3 1.008 0.03 12.0073 9.92447 3.15587 61.1896 9.92447 3.15587 1 0 0 0.00771678 -0.00809354 0.0254308 -4.86657 -9.86685 6.19982 
4949 310 2 12.01 0.11 12.633 10.7943 3.2504 61.8153 10.7943 3.2504 1 0 0 0.00071369 -0.00388146 -0.00420617 27.8223 10.2064 -4.59293 
4957 310 3 1.008 0.03 11.9834 11.6254 3.45597 61.1657 11.6254 3.45597 1 0 0 0.00263614 -0.0210553 -0.0172208 -7.70151 9.57838 -3.54817 
4945 310 1 16 -0.4 13.4463 11.0052 2.05953 62.6287 11.0052 2.05953 1 0 0 0.00365389 0.0032405 -0.00717971 26.6536 24.8173 39.0193 
10454 665 9 24.305 2 15.0948 12.2529 1.57336 64.2772 12.2529 1.57336 1 0 0 0.000961421 0.000667935 -0.00153314 -8.09421 19.3864 20.8263 
4952 310 3 1.008 0.03 11.8472 11.1529 0.777777 61.0295 11.1529 0.777777 1 0 0 0.00561114 0.00199861 -0.00381357 -23.6131 22.9134 2.55928 
9826 616 6 16 -0.53 13.7484 13.9413 1.53918 62.9308 13.9413 1.53918 1 0 0 -0.00455562 0.00545251 -0.0023253 4.47774 1.25177 -0.996204 
10152 638 8 19 -0.16 14.6657 12.6569 6.41518 14.6657 12.6569 55.5975 0 0 1 -0.00153008 -0.0002238 -0.00326948 -9.55236 -3.3021 11.594 
9817 616 4 14.01 -0.66 11.45 14.6053 0.807403 60.6324 14.6053 0.807403 1 0 0 -0.00509798 0.00265193 -0.00590425 -22.4065 -18.5072 -18.4981 
4972 311 3 1.008 0.03 10.1657 11.1239 6.46356 59.348 -38.0584 55.6459 1 -1 1 -0.00727541 -0.00736107 0.0165012 10.9778 10.0853 10.4464 
10153 638 8 19 -0.16 13.9038 14.4155 5.51136 13.9038 14.4155 54.6937 0 0 1 -0.010117 0.00417527 -0.000175394 -10.9684 1.38474 -6.76014 
7807 488 3 1.008 0.03 15.4018 9.18537 1.60986 64.5841 9.18537 1.60986 1 0 0 -0.000611318 -0.00700216 0.0204622 29.0388 8.9898 4.64753 
10151 638 7 12.01 0.35 15.0003 13.8117 5.8958 15.0003 13.8117 55.0782 0 0 1 -0.00860779 -0.000438735 0.00151937 28.8021 -14.7463 -21.661 
10149 638 6 16 -0.53 15.5154 12.773 3.51605 15.5154 12.773 52.6984 0 0 1 -0.0023769 -0.00171856 0.00254764 -12.6225 -2.89674 -6.31525 
10154 638 8 19 -0.16 15.5333 14.5531 6.82583 15.5333 14.5531 56.0082 0 0 1 0.00700957 0.00344385 0.00508538 0.974126 5.88698 20.3129 
9645 604 5 32.06 1.02 15.872 9.97135 6.9447 15.872 59.1537 6.9447 0 1 0 -0.00126468 -0.000611922 0.00367309 4.65568 29.6389 49.3041 
10147 638 4 14.01 -0.66 16.4207 14.9942 3.98578 16.4207 14.9942 53.1681 0 0 1 -0.00379806 -0.000540948 -0.00515532 22.9089 -2.2538 21.2631 
4971 311 3 1.008 0.03 9.22453 10.0051 5.65761 58.4069 -39.1772 54.84 1 -1 1 0.0333287 -0.0037767 -0.0105216 -9.98673 7.58501 1.49786 
10159 638 8 19 -0.16 14.6781 16.5375 5.65225 14.6781 16.5375 54.8346 0 0 1 3.651e-05 7.40607e-05 -0.00282105 14.6828 3.31456 9.16697 
7793 488 1 16 -0.4 16.6414 13.5097 0.998092 65.8238 13.5097 0.998092 1 0 0 -0.00184694 0.000523952 -0.0035809 -6.95225 8.04428 -8.0208 
7798 488 2 12.01 0.11 16.4349 9.57223 1.87604 65.6172 9.57223 1.87604 1 0 0 -0.00153023 -0.00482651 0.00368844 -29.1071 -22.6243 -11.3498 
7806 488 3 1.008 0.03 16.5366 9.41762 2.9194 65.7189 9.41762 2.9194 1 0 0 0.00881197 0.0123867 -0.0126283 5.22147 -7.84155 20.0991 
7794 488 1 16 -0.4 16.5023 10.9594 1.69324 65.6846 10.9594 1.69324 1 0 0 -0.00406717 0.000311737 0.00118517 -1.33322 26.878 -7.73176 
10148 638 5 32.06 1.02 16.2179 13.541 4.52809 16.2179 13.541 53.7104 0 0 1 0.000565538 -0.00128768 0.000971376 -8.82536 7.78279 -21.7485 
3663 229 3 1.008 0.03 11.9235 15.0302 6.60107 11.9235 64.2126 6.60107 0 1 0 -0.00168103 0.00296825 0.00818662 -4.84127 9.72615 -26.4194 
9828 616 7 12.01 0.35 13.1877 16.561 1.09889 62.3701 16.561 1.09889 1 0 0 -0.00124727 0.00516788 -0.00550056 -77.0758 7.36658 -5.59374 
7804 488 3 1.008 0.03 16.0029 15.4578 0.42979 65.1853 15.4578 0.42979 1 0 0 0.000792436 0.01715 -0.00522124 11.9647 -7.7228 14.3657 
3662 229 3 1.008 0.03 11.1783 13.6221 7.38431 11.1783 62.8045 7.38431 0 1 0 0.00845586 0.00386606 -0.00622689 -4.00371 2.06898 -2.58568 
744 47 3 1.008 0.03 24.863 15.3001 0.842429 24.863 -33.8823 148.389 0 -1 3 -0.00178575 0.0125758 -0.00307155 -33.4526 20.3896 -11.9182 
7795 488 2 12.01 0.14 17.9142 12.9053 1.09249 67.0965 12.9053 1.09249 1 0 0 0.00777503 -0.000818874 -0.00282596 -5.07958 2.1553 -17.749 
6007 376 3 1.008 0.03 23.0348 16.1964 1.19655 72.2172 16.1964 50.3789 1 0 1 0.00308285 0.0359162 0.0187911 -28.2252 18.2305 -17.109 
1057 67 1 16 -0.4 21.7899 10.0993 6.78508 21.7899 10.0993 55.9674 0 0 1 -0.00461085 0.00251583 0.00275821 22.3854 2.40008 33.0409 