ITEM: TIMESTEP
1600000
ITEM: NUMBER OF ATOMS
10479
ITEM: BOX BOUNDS pp pp pp
4.0882558190751794e-01 4.9591174418091420e+01
4.0882558190751794e-01 4.9591174418091420e+01
4.0882558190751794e-01 4.9591174418091420e+01
ITEM: ATOMS id mol type mass q x y z xu yu zu ix iy iz vx vy vz fx fy fz 
6177 387 1 16 -0.4 2.20594 4.51101 0.911202 -46.9764 53.6934 -48.2711 -1 1 -1 -0.00261118 0.00489133 -0.00476036 22.4023 -6.73005 -0.66493 
6185 387 3 1.008 0.03 2.49272 1.73386 2.69455 -46.6896 50.9162 -46.4878 -1 1 -1 0.0123559 0.0158983 0.039923 -2.94586 -1.34394 1.50557 
6180 387 2 12.01 0.14 2.86653 2.63402 2.21429 -46.3158 51.8164 -46.9681 -1 1 -1 -0.00145274 -0.00270218 0.00414062 -54.8971 -7.21634 6.11175 
6179 387 2 12.01 0.14 1.63999 3.45829 1.66678 -47.5424 52.6406 -47.5156 -1 1 -1 0.00339914 -0.00242339 -0.00455174 -4.27664 -34.9311 -8.2911 
6186 387 3 1.008 0.03 3.47259 2.25256 1.46258 -45.7098 51.4349 -47.7198 -1 1 -1 0.000754134 0.0103265 0.0236625 21.7063 -4.54237 -30.659 
6184 387 3 1.008 0.03 0.915258 2.88766 1.02017 -48.2671 52.07 -48.1622 -1 1 -1 0.00479652 -0.0333317 0.00340978 26.2346 4.92302 8.41379 
6183 387 3 1.008 0.03 0.954094 3.71781 2.46971 -48.2283 52.9002 -46.7126 -1 1 -1 0.0167894 0.0319353 0.0137349 9.58682 10.1209 6.96436 
6190 387 3 1.008 0.03 5.01609 1.70508 3.48911 -44.1663 50.8874 -45.6932 -1 1 -1 -0.040902 0.0171562 0.0164951 -10.0981 31.7887 4.45065 
6192 387 3 1.008 0.03 5.45382 3.39474 4.14408 -43.7285 52.5771 -45.0383 -1 1 -1 -0.0264504 -0.0175404 -0.0229628 -9.05244 -7.0728 7.91661 
6178 387 1 16 -0.4 3.55726 3.33015 3.18963 -45.6251 52.5125 -45.9927 -1 1 -1 0.0012555 -0.00102211 0.00792565 24.1223 6.82313 20.8872 
6182 387 2 12.01 0.11 4.89112 2.83193 3.39358 -44.2912 52.0143 -45.7888 -1 1 -1 -0.00396624 0.00563616 -0.0030385 15.144 -11.2441 -23.1926 
6191 387 3 1.008 0.03 5.48225 3.1038 2.49962 -43.7001 52.2861 -46.6827 -1 1 -1 -0.0136229 0.00352763 -0.0137958 -9.41126 -6.34746 4.69385 
4866 305 1 16 -0.4 3.35731 1.15763 7.07345 101.722 50.34 -42.1089 2 1 -1 0.000197421 0.00215506 0.000344786 40.6639 1.68391 11.8853 
3334 209 2 12.01 0.11 2.7407 6.1035 4.30443 101.105 -43.0788 4.30443 2 -1 0 0.00406533 0.00793034 -0.00735447 -10.7618 21.1297 -40.6071 
3343 209 3 1.008 0.03 2.45959 5.16954 4.78596 100.824 -44.0128 4.78596 2 -1 0 -0.0116011 0.003263 -0.00120891 -1.85432 -3.07773 -3.07662 
2168 136 3 1.008 0.03 5.41084 8.34659 5.25372 103.776 8.34659 5.25372 2 0 0 -0.0113752 -0.0114889 -0.0343043 13.7145 4.38763 -4.93558 
4296 269 3 1.008 0.03 5.00125 7.78134 2.30794 54.1836 56.9637 -46.8744 1 1 -1 -0.000793903 0.00831085 0.0113852 -9.7219 0.12073 -7.80421 
4291 269 2 12.01 0.14 4.5777 8.37245 1.47498 53.76 57.5548 -47.7074 1 1 -1 0.000257507 -0.00148505 0.00148744 9.41172 -6.3631 13.7854 
3344 209 3 1.008 0.03 2.64792 6.0962 3.18252 101.013 -43.0861 3.18252 2 -1 0 -0.000347174 -0.02473 0.0154817 3.29568 -15.6015 23.9905 
2163 136 2 12.01 0.14 6.29657 8.57576 5.87282 104.661 8.57576 5.87282 2 0 0 -0.00121188 -0.00448452 0.00189306 -33.591 -11.1121 46.063 
2167 136 3 1.008 0.03 7.21766 8.48213 5.32116 105.582 8.48213 5.32116 2 0 0 -0.0343294 -0.0160963 -0.0155922 6.66393 -8.17329 -5.78863 
3342 209 3 1.008 0.03 3.80531 6.30454 4.44638 102.17 -42.8778 4.44638 2 -1 0 -0.0220004 0.00779428 0.012849 -4.14866 0.944844 8.90541 
4971 311 3 1.008 0.03 7.20684 4.78158 2.33319 56.3892 -44.4008 51.5155 1 -1 1 -0.0116215 -0.0108225 0.00139245 5.2347 -13.4479 6.96894 
6189 387 3 1.008 0.03 0.60803 5.47698 1.32659 -48.5743 54.6593 -47.8558 -1 1 -1 -0.0059787 0.00611128 -0.00518286 -30.1184 17.1466 8.94513 
3330 209 1 16 -0.4 1.89074 7.1985 4.66061 100.255 -41.9839 4.66061 2 -1 0 -0.00106657 0.00623843 0.000266016 14.1822 12.4706 16.3766 
3332 209 2 12.01 0.14 0.579051 7.18051 4.12509 98.9437 -42.0018 4.12509 2 -1 0 0.0012004 -0.00142796 0.00117796 -39.913 12.0519 -10.2652 
3337 209 3 1.008 0.03 0.629963 7.08786 3.03422 98.9947 -42.0945 3.03422 2 -1 0 0.0044205 -0.0103142 0.0161948 -3.11055 -13.8995 5.39712 
4295 269 3 1.008 0.03 3.76343 7.77787 0.962609 52.9458 56.9602 -48.2197 1 1 -1 0.0151541 -0.0104363 0.00455455 17.4078 16.3586 13.1491 
4973 311 3 1.008 0.03 7.69251 4.5814 4.07523 56.8749 -44.6009 53.2576 1 -1 1 -0.0134851 -0.0123868 0.021639 -9.16759 -3.12826 -2.10136 
4871 305 3 1.008 0.03 0.587609 1.35795 5.52694 98.9523 50.5403 -43.6554 2 1 -1 -0.00878341 -0.0118682 0.0197134 -8.62715 7.37464 -9.82462 
4961 311 1 16 -0.4 8.40319 6.22484 3.09767 57.5855 -42.9575 52.28 1 -1 1 -0.00166908 -0.00294865 0.00298597 24.9826 -47.3953 -1.35449 
4965 311 2 12.01 0.11 8.02498 4.79909 3.07114 57.2073 -44.3833 52.2535 1 -1 1 -0.00633933 -0.00149818 -0.000662391 -11.8392 71.9909 6.47502 
6187 387 3 1.008 0.03 1.78681 6.4906 0.482741 -47.3955 55.673 -48.6996 -1 1 -1 -0.00835602 -0.0285292 -0.00729557 -5.73169 -16.9427 4.0516 
4870 305 2 12.01 0.11 4.74454 0.811747 6.80466 103.109 49.9941 -42.3777 2 1 -1 -0.00896792 -0.000579059 -0.00674909 -25.9657 -2.06771 40.6981 
4872 305 3 1.008 0.03 0.763727 1.34108 7.28302 99.1284 50.5234 -41.8993 2 1 -1 0.030609 -0.00504926 -0.0049054 12.8612 -2.72978 -24.2316 
2161 136 1 16 -0.4 6.12359 7.66054 7.00548 104.488 7.66054 7.00548 2 0 0 0.00414269 0.000425107 -0.00264289 14.4483 47.1251 -14.2321 
4874 305 3 1.008 0.03 2.79921 1.36249 5.19939 101.164 50.5448 -43.983 2 1 -1 0.0102763 -0.00205518 0.00198124 4.77884 17.2647 -20.828 
2165 136 2 12.01 0.11 6.30637 6.34101 6.69035 104.671 6.34101 6.69035 2 0 0 0.00424937 0.00101352 0.00211103 3.66178 -20.0405 0.674136 
924 58 3 1.008 0.03 7.45866 1.97757 5.40854 105.823 1.97757 5.40854 2 0 0 -0.00283346 0.00913653 -0.0096348 1.58104 7.2536 -7.34714 
2940 184 3 1.008 0.03 5.93859 1.20186 0.421489 -43.2438 50.3842 0.421489 -1 1 0 -0.0221077 0.00311744 -0.0221501 -13.4124 4.49308 13.1274 
2172 136 3 1.008 0.03 5.51706 6.05374 6.01543 103.882 6.05374 6.01543 2 0 0 0.0103676 0.00586482 -0.0158876 -2.76957 -8.41387 -6.35165 
4868 305 2 12.01 0.14 2.58794 0.73946 6.01901 100.953 49.9218 -43.1633 2 1 -1 -0.00515656 0.00403091 -0.00128571 -40.8494 -18.9375 -2.07274 
2936 184 3 1.008 0.03 7.03994 0.926375 2.63791 -42.1424 50.1087 2.63791 -1 1 0 -0.00587806 -0.00392139 -0.00261958 -6.85177 8.7156 -0.129408 
2173 136 3 1.008 0.03 7.28449 6.15024 6.2648 105.649 6.15024 6.2648 2 0 0 0.0250536 0.000796569 0.0255509 3.2213 0.713029 -5.65448 
4867 305 2 12.01 0.14 1.04772 0.81592 6.32322 99.4124 49.9983 -42.8591 2 1 -1 -0.00171504 0.00757903 0.00473729 17.0417 10.7225 26.4565 
917 58 2 12.01 0.11 8.20334 2.61356 5.8938 106.568 2.61356 5.8938 2 0 0 0.00535076 -0.00275267 -0.00892342 -15.7732 -18.2547 47.1345 
6181 387 2 12.01 0.11 1.30676 5.48522 0.540644 -47.8756 54.6676 -48.6417 -1 1 -1 -0.00451155 0.00330884 -0.00124189 14.7353 28.9212 -11.7814 
4878 305 3 1.008 0.03 5.07907 1.02815 5.81119 103.444 50.2105 -43.3712 2 1 -1 0.0112843 0.00132926 0.00308295 8.0974 12.8254 -9.38251 
923 58 3 1.008 0.03 7.87759 3.65122 5.93323 106.242 3.65122 5.93323 2 0 0 -0.0152266 0.0200763 0.0183236 -4.57097 -2.02482 2.81618 
4300 269 3 1.008 0.03 6.75785 6.95817 0.574985 55.9402 56.1405 -48.6074 1 1 -1 0.00874176 -0.000102615 0.00152786 11.3819 -5.61428 3.03484 
925 58 3 1.008 0.03 8.17882 2.18886 6.95228 106.544 2.18886 6.95228 2 0 0 -0.000833317 0.00575342 -0.00694881 10.9076 17.2417 -29.374 
350 22 3 1.008 0.03 15.46 5.33104 0.639239 64.6424 5.33104 148.186 1 0 3 -0.00632467 0.0243499 0.0123509 4.98799 25.3547 9.03702 
4976 311 3 1.008 0.03 9.07791 8.24467 0.677856 58.2603 -40.9377 49.8602 1 -1 1 0.00103976 -0.0361619 -0.0290751 -12.348 3.36563 8.73078 
2151 135 3 1.008 0.03 15.086 0.50256 6.12053 15.086 49.6849 104.485 0 1 2 0.0200857 -0.0228022 0.0141655 -19.3008 -17.3825 -5.05942 
338 22 1 16 -0.4 14.3699 3.67134 0.842844 63.5522 3.67134 148.39 1 0 3 -0.00103446 -0.0015611 0.00204431 -29.0353 -3.9158 -0.840766 
921 58 3 1.008 0.03 11.9956 2.06569 5.02438 110.36 2.06569 5.02438 2 0 0 -0.0255075 0.00112793 -0.00261569 1.11289 -23.7047 -3.27395 
916 58 2 12.01 0.14 11.7125 3.0739 4.87696 110.077 3.0739 4.87696 2 0 0 0.00594544 0.00138679 0.0008019 -7.49201 37.3468 21.1545 
927 58 3 1.008 0.03 14.1974 2.57708 4.49382 112.562 2.57708 4.49382 2 0 0 0.000693279 -0.00856151 -0.0250268 -2.3638 -2.51928 -14.305 
918 58 2 12.01 0.11 13.9112 3.62275 4.37519 112.276 3.62275 4.37519 2 0 0 0.00448752 -0.000390414 0.0166927 -1.34923 10.504 1.26092 
914 58 1 16 -0.4 12.8356 3.88662 5.22874 111.2 3.88662 5.22874 2 0 0 -0.000761139 -0.0106868 -0.0036676 -16.7113 -4.26069 10.7994 
351 22 3 1.008 0.03 16.4152 3.89146 0.660609 65.5976 3.89146 148.208 1 0 3 -0.00409159 0.032008 -4.90779e-05 30.6541 -11.7133 14.5439 
926 58 3 1.008 0.03 14.7851 4.17633 4.71036 113.15 4.17633 4.71036 2 0 0 -0.0264371 0.00856713 0.00920222 -0.464757 6.7517 -3.84494 
928 58 3 1.008 0.03 13.5613 3.97335 3.37889 111.926 3.97335 3.37889 2 0 0 0.00581795 -0.0295674 0.0182078 17.3756 -13.2552 5.59969 
4975 311 3 1.008 0.03 9.63519 6.5498 0.853003 58.8175 -42.6325 50.0354 1 -1 1 -0.00730961 0.0126023 -0.0234264 -8.22027 -9.66819 -3.25293 
4377 274 3 1.008 0.03 14.3107 0.797831 1.20806 63.4931 99.1625 -47.9743 1 2 -1 -0.00272192 0.00355062 -0.00303191 -2.2868 0.0939653 2.23071 
4972 311 3 1.008 0.03 8.82917 4.13636 2.87127 58.0115 -45.046 52.0536 1 -1 1 -0.00478306 0.00510217 -0.00272695 9.57576 -12.5522 -13.8299 
4966 311 2 12.01 0.11 9.91844 7.58198 0.773039 59.1008 -41.6004 49.9554 1 -1 1 -0.00660871 0.000486326 -0.000529226 2.59146 3.93219 23.4109 
9649 604 8 19 -0.16 13.5603 7.35104 4.16348 13.5603 56.5334 4.16348 0 1 0 -0.00139074 -0.009947 0.00414361 14.8696 -11.7373 -13.1483 
922 58 3 1.008 0.03 11.4865 3.28965 3.8393 109.851 3.28965 3.8393 2 0 0 -0.0147769 0.0298587 -0.0169916 -3.25353 -6.42427 -4.68449 
9648 604 7 12.01 0.35 13.6177 7.55316 5.456 13.6177 56.7355 5.456 0 1 0 -0.00776938 -0.00150214 -0.000271095 -31.2008 -18.2321 -2.0599 
348 22 3 1.008 0.03 9.98862 2.43372 2.13576 59.171 2.43372 149.683 1 0 3 -0.000738815 0.00284236 -0.0174397 -15.5469 15.8676 20.0233 
341 22 2 12.01 0.11 10.5604 1.67187 1.70439 59.7428 1.67187 149.251 1 0 3 -0.000656085 -0.0071644 -0.00362938 -19.9123 -15.151 -7.82678 
347 22 3 1.008 0.03 10.6965 0.853385 2.41116 59.8788 0.853385 149.958 1 0 3 0.00120017 -0.00891445 0.0201195 -4.20733 -1.2319 -0.749052 
344 22 3 1.008 0.03 11.4387 4.2407 1.30911 60.6211 4.2407 148.856 1 0 3 -0.00838832 0.0315768 -0.00408236 5.06135 -2.47474 -0.472586 
9650 604 8 19 -0.16 14.493 6.71668 6.01141 14.493 55.899 6.01141 0 1 0 0.00521336 -0.00377505 -0.00777865 -2.65659 0.160804 -10.8212 
915 58 2 12.01 0.14 10.4494 3.40379 5.74139 108.814 3.40379 5.74139 2 0 0 0.00565219 -0.00117644 -0.0044218 20.539 -18.8574 15.1289 
9651 604 8 19 -0.16 12.3897 7.16066 5.83127 12.3897 56.343 5.83127 0 1 0 -0.0025429 0.00120979 -0.00453564 16.0498 16.3171 14.3943 
913 58 1 16 -0.4 9.44194 2.51794 5.25292 107.807 2.51794 5.25292 2 0 0 -0.00101202 0.0047217 -0.00459384 6.01993 6.06734 -14.3271 
4371 274 2 12.01 0.14 16.3737 0.760815 0.619787 65.5561 99.1255 -48.5626 1 2 -1 0.00148626 0.00339548 -0.000685029 17.4894 -43.965 -9.85701 
337 22 1 16 -0.4 11.791 2.20121 1.43502 60.9733 2.20121 148.982 1 0 3 0.00138469 -0.00420532 0.00313557 43.9365 17.2341 -28.5751 
4969 311 3 1.008 0.03 9.36755 8.44802 3.21216 58.5499 -40.7343 52.3945 1 -1 1 0.00319332 -0.00105525 0.0190573 10.72 0.325239 -5.63331 
4967 311 3 1.008 0.03 9.70886 6.42539 4.59654 58.8912 -42.757 53.7789 1 -1 1 0.0179193 0.0122822 0.00525668 1.08144 -4.05614 21.4982 
4968 311 3 1.008 0.03 10.3892 5.50739 3.31437 59.5715 -43.675 52.4967 1 -1 1 0.00123523 -0.00938997 -0.00395518 15.4095 3.46703 -7.79844 
4963 311 2 12.01 0.14 9.78201 6.37002 3.54147 58.9644 -42.8123 52.7238 1 -1 1 0.00642839 -0.00232983 -0.00375459 -32.8664 30.0223 -18.8541 
4964 311 2 12.01 0.14 10.254 7.80162 3.09196 59.4364 -41.3807 52.2743 1 -1 1 0.00430024 -0.0100019 -0.00973593 -12.215 -4.41477 27.1561 
4970 311 3 1.008 0.03 10.9941 8.21907 3.79363 60.1765 -40.9633 52.976 1 -1 1 -0.038306 0.0135236 0.0139639 -4.3162 -7.955 -3.16608 
4962 311 1 16 -0.4 10.8243 7.92048 1.81493 60.0066 -41.2619 50.9973 1 -1 1 0.00438785 -0.00706536 0.00303755 -5.36515 -7.24406 -9.49332 
920 58 3 1.008 0.03 10.5709 3.09643 6.81327 108.936 3.09643 6.81327 2 0 0 0.00750516 0.00042576 0.000725437 6.06537 12.0225 -18.6608 
1072 67 3 1.008 0.03 16.465 7.54308 4.13138 16.465 7.54308 53.3137 0 0 1 0.0042805 -0.0170481 -0.00823256 -17.5841 29.2238 8.87663 
4375 274 3 1.008 0.03 16.6855 1.73804 0.887577 65.8678 100.103 -48.2948 1 2 -1 -0.0190567 -0.006863 0.00190553 6.89302 17.7256 1.63414 
919 58 3 1.008 0.03 10.286 4.49554 5.6992 108.651 4.49554 5.6992 2 0 0 -0.0216751 0.00930101 0.00783853 -10.8398 -12.7381 -0.342883 
339 22 2 12.01 0.14 11.8023 3.43126 0.664948 60.9847 3.43126 148.212 1 0 3 0.00229286 0.000783608 0.00873139 6.5412 -2.75014 36.0103 
349 22 3 1.008 0.03 9.94367 1.37038 0.846884 59.126 1.37038 148.394 1 0 3 -0.00722331 -0.0150555 0.00697621 13.1649 -3.59864 -0.77148 
10041 630 8 19 -0.16 21.9254 1.05013 0.965269 -27.2569 50.2325 0.965269 -1 1 0 -0.00214724 -0.00242301 -0.00358915 7.98656 4.63578 -16.7494 
10032 630 8 19 -0.16 21.3593 4.28884 0.913439 -27.8231 53.4712 0.913439 -1 1 0 -0.0011716 -0.00210786 0.00493643 3.78811 15.2891 -5.9042 
6702 419 3 1.008 0.03 22.8008 1.76873 5.9788 22.8008 1.76873 -43.2035 0 0 -1 -0.0165449 0.00177079 0.019871 7.59283 1.05654 3.94789 
2596 163 2 12.01 0.14 24.8707 4.27995 3.4302 24.8707 4.27995 150.977 0 0 3 0.00793356 0.00890659 0.00562773 25.5244 24.2791 11.4544 
6703 419 3 1.008 0.03 24.0185 2.35484 7.22977 24.0185 2.35484 -41.9526 0 0 -1 0.00398097 0.0119448 -0.0117225 -4.97246 19.091 2.8903 
5068 317 3 1.008 0.03 22.7435 5.88076 0.483785 22.7435 104.245 0.483785 0 2 0 0.0291046 0.00568716 0.00784957 25.9679 11.4579 15.1722 
5130 321 3 1.008 0.03 18.3608 1.01963 5.80765 18.3608 50.202 5.80765 0 1 0 0.000335677 -0.00157265 -0.0263267 -3.85284 -12.8557 -4.15816 
2780 174 3 1.008 0.03 18.0065 8.23088 0.807723 116.371 -90.1338 0.807723 2 -2 0 -0.0105231 0.0221242 -0.0107132 -7.8467 -4.12097 1.33958 
5121 321 1 16 -0.4 19.2338 3.89445 4.72786 19.2338 53.0768 4.72786 0 1 0 -0.0049298 0.00552456 -0.000288386 28.5115 -5.28439 -14.0633 
5125 321 2 12.01 0.11 20.2694 4.43467 3.87882 20.2694 53.617 3.87882 0 1 0 0.00543262 -0.00416993 -0.00446125 31.6455 -12.1685 25.5995 
5131 321 3 1.008 0.03 20.803 3.69914 3.25652 20.803 52.8815 3.25652 0 1 0 -0.0266403 0.00915977 -0.0116225 -19.2723 4.40272 -9.11926 
5132 321 3 1.008 0.03 19.957 5.31397 3.35311 19.957 54.4963 3.35311 0 1 0 0.021788 0.00406 0.00386099 -4.99185 6.2524 -11.1222 
2594 163 1 16 -0.4 24.3865 3.08274 3.98264 24.3865 3.08274 151.53 0 0 3 0.00118016 0.00135024 0.00174063 -12.8713 8.6645 13.1506 
2598 163 2 12.01 0.11 23.7604 2.30771 2.99151 23.7604 2.30771 150.539 0 0 3 0.00344204 -0.00319154 0.0046009 27.7189 -27.4299 14.1257 
1071 67 3 1.008 0.03 16.8934 5.98609 4.37971 16.8934 5.98609 53.5621 0 0 1 -0.0117562 -0.0222434 0.00820505 11.9695 -3.82978 -4.0339 
1062 67 2 12.01 0.11 17.1692 6.8637 3.7877 17.1692 6.8637 52.9701 0 0 1 0.00281071 0.00109757 0.00319178 -16.6226 -27.9761 -4.86187 
5127 321 3 1.008 0.03 19.497 2.00135 4.08965 19.497 51.1837 4.08965 0 1 0 -0.0300495 -0.025164 0.00900875 0.318412 -14.755 -17.3421 
2607 163 3 1.008 0.03 22.8378 2.6005 2.62498 22.8378 2.6005 150.172 0 0 3 0.0143858 0.0103911 -0.0116675 -25.4866 29.481 -17.4566 
1065 67 3 1.008 0.03 18.3895 7.31274 6.04091 18.3895 7.31274 55.2233 0 0 1 -0.0253819 0.0168285 0.000805002 -0.527126 -14.7894 22.1677 
5123 321 2 12.01 0.14 19.5526 2.52834 5.00151 19.5526 51.7107 5.00151 0 1 0 -0.00421154 -0.00771898 -0.00282511 -34.7619 35.5243 24.8843 
5128 321 3 1.008 0.03 20.4982 2.3754 5.43752 20.4982 51.5577 5.43752 0 1 0 -0.00875436 -0.0232282 0.0174394 26.2766 0.438303 6.61235 
5133 321 3 1.008 0.03 21.1829 4.72571 4.44435 21.1829 53.9081 4.44435 0 1 0 -0.0209588 0.0188716 0.0426654 -26.0281 -4.89227 1.10333 
5124 321 2 12.01 0.14 18.4914 2.06627 5.99823 18.4914 51.2486 5.99823 0 1 0 -0.00401725 -0.00202608 0.0110968 -44.506 17.8231 -30.2835 
1061 67 2 12.01 0.11 22.0716 7.16098 4.79702 22.0716 7.16098 53.9794 0 0 1 0.00156424 0.000376067 -0.0004205 -12.0315 17.3376 12.7449 
1057 67 1 16 -0.4 21.0779 7.57382 5.7246 21.0779 7.57382 54.9069 0 0 1 0.00326981 0.00122009 0.0016 9.99856 -11.5839 14.7333 
1068 67 3 1.008 0.03 22.457 6.1864 5.14919 22.457 6.1864 54.3315 0 0 1 -0.00302332 -0.0077411 -0.0236908 12.3436 17.6929 -2.71863 
2608 163 3 1.008 0.03 24.5124 2.14032 2.20663 24.5124 2.14032 149.754 0 0 3 0.0246866 -0.00390327 -0.0303903 -15.0743 -13.0746 -3.22674 
1069 67 3 1.008 0.03 21.663 7.04211 3.80887 21.663 7.04211 52.9912 0 0 1 0.00868811 -0.0168858 -0.0226163 -4.67792 -3.69511 -8.40075 
5129 321 3 1.008 0.03 17.4816 2.58084 5.81091 17.4816 51.7632 5.81091 0 1 0 -0.00764732 -0.0080906 0.0143192 33.8869 -19.1492 2.76831 
6704 419 3 1.008 0.03 24.4581 1.09631 6.21465 24.4581 1.09631 -42.9677 0 0 -1 -0.0100006 0.0128184 0.00680792 4.67915 0.561136 -16.7014 
2601 163 3 1.008 0.03 24.1288 5.00141 3.07662 24.1288 5.00141 150.624 0 0 3 -0.0166416 0.00351643 0.0129786 -8.79489 -15.1698 3.00717 
2606 163 3 1.008 0.03 23.4324 1.38403 3.44863 23.4324 1.38403 150.996 0 0 3 0.0186396 0.008336 0.0102727 11.1738 -10.1606 1.45313 
1067 67 3 1.008 0.03 22.7608 8.01811 4.76105 22.7608 8.01811 53.9434 0 0 1 0.00813903 -0.00320119 0.0180423 8.92041 -15.7206 -0.300924 
5057 317 1 16 -0.4 24.899 6.05963 1.09259 24.899 104.424 1.09259 0 2 0 0.00351665 0.00955739 0.00883795 -36.5201 9.26651 -23.2972 
2781 174 3 1.008 0.03 19.5476 7.7972 1.50963 117.912 -90.5675 1.50963 2 -2 0 -0.0157967 0.0125297 0.00193203 4.94733 9.47672 -7.32352 
1070 67 3 1.008 0.03 16.8984 6.71447 2.74679 16.8984 6.71447 51.9291 0 0 1 -0.000798135 -0.0156734 -0.00470077 4.45956 -5.55558 -3.2488 
1058 67 1 16 -0.4 18.4763 7.31319 3.932 18.4763 7.31319 53.1143 0 0 1 0.000468622 0.00185097 -0.00333872 27.9322 2.74578 20.4575 
1060 67 2 12.01 0.14 18.7333 7.89027 5.22978 18.7333 7.89027 54.4121 0 0 1 -0.00148256 0.00550678 0.000260754 32.9539 31.0202 -64.5818 
1059 67 2 12.01 0.14 20.1834 8.55907 5.30105 20.1834 8.55907 54.4834 0 0 1 -0.000702238 -0.000383686 0.00790899 -55.6168 -6.293 2.21147 
5122 321 1 16 -0.4 18.8234 2.23851 7.33343 18.8234 51.4209 7.33343 0 1 0 -0.00478372 0.00286022 -0.000744387 -0.962072 -11.7568 25.9921 
6694 419 2 12.01 0.11 23.6006 1.52598 6.69822 23.6006 1.52598 -42.4841 0 0 -1 -0.00990526 0.00552899 7.02135e-05 13.5966 -9.11377 -8.46887 
4381 274 3 1.008 0.03 18.0222 1.20689 2.74443 67.2045 99.5716 -46.4379 1 2 -1 0.0103806 0.00734358 0.0227931 -10.2527 -4.85353 -6.75621 
5069 317 3 1.008 0.03 23.1705 6.8349 1.91923 23.1705 105.2 1.91923 0 2 0 0.00458053 -0.0184536 -0.0170424 -5.94296 3.11867 7.82363 
5061 317 2 12.01 0.11 23.5109 6.56158 0.937353 23.5109 104.926 0.937353 0 2 0 -0.0025629 0.00346584 0.00686851 30.0515 -11.0413 -10.2074 
4297 269 3 1.008 0.03 4.00404 9.66076 3.12457 53.1864 58.8431 -46.0578 1 1 -1 -0.0485928 0.00576972 -0.0153987 -10.4599 -2.16018 15.3145 
880 55 3 1.008 0.03 8.22886 10.7187 1.48642 -40.9535 -38.4636 1.48642 -1 -1 0 -0.00275451 -0.00652995 -0.000703675 -7.69394 8.85394 6.62064 
2895 181 3 1.008 0.03 1.9088 9.17091 6.64116 1.9088 9.17091 -42.5412 0 0 -1 0.00369085 -0.00953811 -0.00743557 -12.1605 -1.76853 -0.476952 
2889 181 3 1.008 0.03 1.144 11.4428 5.49004 1.144 11.4428 -43.6923 0 0 -1 0.0185478 0.00835028 -0.0201631 13.1026 -5.62214 -0.298515 
4298 269 3 1.008 0.03 4.87349 10.4864 1.91363 54.0558 59.6687 -47.2687 1 1 -1 -0.0293483 0.00797654 0.0276591 1.35724 -2.91189 -1.49117 
4292 269 2 12.01 0.14 4.10923 9.71938 2.06445 53.2916 58.9017 -47.1179 1 1 -1 -0.00459459 -0.001437 -0.000298889 7.48457 -12.0511 -21.9057 
870 55 2 12.01 0.11 8.00305 11.0281 2.52297 -41.1793 -38.1542 2.52297 -1 -1 0 -0.00113499 0.00654575 0.005036 16.6952 0.111337 25.1043 
879 55 3 1.008 0.03 7.66409 10.1454 3.0841 -41.5183 -39.0369 3.0841 -1 -1 0 -0.0129702 0.0147251 0.0118389 2.58753 1.25711 -9.31747 
3792 237 3 1.008 0.03 7.2742 13.5711 7.05277 7.2742 62.7535 7.05277 0 1 0 0.00410534 -0.00602778 0.0225964 10.4574 5.81803 2.71104 
4304 269 3 1.008 0.03 3.53699 11.9925 1.05937 52.7193 61.1748 -48.123 1 1 -1 0.00115341 0.0229146 -0.0156143 -3.72014 2.83341 3.15055 
2169 136 3 1.008 0.03 5.90815 10.514 5.47418 104.273 10.514 5.47418 2 0 0 -0.00277552 -0.0119812 -0.0219791 -2.14461 10.0463 5.87701 
866 55 1 16 -0.4 6.97121 11.9943 2.75509 -42.2111 -37.188 2.75509 -1 -1 0 0.0013362 -0.000314694 -0.00410954 -2.45675 -16.6044 -2.94358 
4294 269 2 12.01 0.11 2.66618 11.4563 1.45155 51.8485 60.6387 -47.7308 1 1 -1 0.0042106 0.00520487 -0.00750353 -6.91592 -13.9451 -9.1946 
4303 269 3 1.008 0.03 2.43321 11.8162 2.48086 51.6156 60.9986 -46.7015 1 1 -1 -0.0151072 -0.0241983 -0.0145714 2.23972 -6.53009 -15.0618 
4302 269 3 1.008 0.03 1.8388 11.6829 0.746438 51.0211 60.8652 -48.4359 1 1 -1 -0.0127098 0.00812458 -0.0316109 6.77336 -0.0648034 13.7405 
4290 269 1 16 -0.4 2.92036 10.032 1.37125 52.1027 59.2144 -47.8111 1 1 -1 -0.00695053 0.00399755 0.00513461 -6.32455 31.8047 7.67703 
876 55 3 1.008 0.03 5.0557 13.8243 5.86211 -44.1266 -35.358 5.86211 -1 -1 0 0.0106794 -0.0105503 0.00626691 -0.148416 4.31306 8.58176 
869 55 2 12.01 0.11 5.17512 13.537 4.83178 -44.0072 -35.6454 4.83178 -1 -1 0 -0.00926631 0.00533698 -0.00151745 -40.3602 -24.119 -9.41687 
867 55 2 12.01 0.14 5.96379 14.1403 2.73764 -43.2186 -35.0421 2.73764 -1 -1 0 -0.000657455 -0.000395356 -0.00149257 44.7992 10.7925 -15.0713 
871 55 3 1.008 0.03 5.12155 13.7038 2.24748 -44.0608 -35.4786 2.24748 -1 -1 0 -0.0171981 0.0327311 -0.0234343 -22.0845 1.47055 1.88552 
865 55 1 16 -0.4 5.88803 14.515 4.11206 -43.2943 -34.6673 4.11206 -1 -1 0 -0.0046923 0.00718909 -0.00260292 -2.87348 -19.5083 -7.10041 
875 55 3 1.008 0.03 5.57555 12.5248 4.822 -43.6068 -36.6575 4.822 -1 -1 0 -0.045282 0.00308396 -0.00132447 13.0923 7.51633 -1.18948 
877 55 3 1.008 0.03 4.14296 13.3319 4.41177 -45.0394 -35.8505 4.41177 -1 -1 0 0.00464109 -0.041201 0.0185668 30.5074 20.1345 4.98164 
9876 619 8 19 -0.16 2.85843 15.4456 5.04959 2.85843 64.6279 5.04959 0 1 0 -0.00282139 -0.00392175 0.00263213 0.629226 -37.6311 -18.1893 
9873 619 7 12.01 0.35 2.60772 16.5699 5.60362 2.60772 65.7522 5.60362 0 1 0 0.00291178 0.000478584 -0.00565987 60.859 80.2615 -24.5345 
3783 237 3 1.008 0.03 7.50285 16.2999 4.62133 7.50285 65.4822 4.62133 0 1 0 0.0298903 0.00601233 0.0168992 -0.888514 -11.2504 -0.0981774 
872 55 3 1.008 0.03 6.16376 15.1148 2.32161 -43.0186 -34.0675 2.32161 -1 -1 0 -0.00745486 -0.000811661 0.00797293 -7.47607 4.80623 -12.1725 
868 55 2 12.01 0.14 7.21361 13.3032 2.31091 -41.9687 -35.8792 2.31091 -1 -1 0 -0.00401179 0.00906932 0.00111604 27.0443 -1.28198 -2.12115 
874 55 3 1.008 0.03 8.13233 13.6902 2.79597 -41.05 -35.4922 2.79597 -1 -1 0 -0.0177545 -0.00551847 -0.00526907 -15.3097 -4.21655 -2.89855 
2886 181 2 12.01 0.11 2.83269 9.69664 6.76396 2.83269 9.69664 -42.4184 0 0 -1 -0.00365835 0.00751392 0.00290498 -9.86756 -34.634 6.19282 
9874 619 8 19 -0.16 2.83586 16.4157 6.85991 2.83586 65.598 6.85991 0 1 0 -0.00352706 -0.00143618 -0.00498312 -8.37364 -10.3749 35.8758 
3779 237 2 12.01 0.14 8.5385 15.9571 4.55277 8.5385 65.1395 4.55277 0 1 0 -0.00818068 0.00432501 -0.00673386 33.6624 26.3023 17.845 
9819 616 6 16 -0.53 8.42861 15.9851 1.03508 57.611 15.9851 1.03508 1 0 0 0.00115186 -0.000965567 -0.0055045 32.8119 28.7388 -4.80501 
2896 181 3 1.008 0.03 3.30588 9.40981 5.84653 3.30588 9.40981 -43.3358 0 0 -1 0.00923132 -0.0202785 0.0226266 11.143 21.5265 -15.5994 
2882 181 1 16 -0.4 2.51754 11.0264 7.13866 2.51754 11.0264 -42.0437 0 0 -1 0.00286872 0.0030535 0.00359193 3.08104 14.1778 -22.2602 
873 55 3 1.008 0.03 7.49528 13.2346 1.21498 -41.6871 -35.9478 1.21498 -1 -1 0 -0.00740869 0.00437007 0.017409 -20.3246 9.52158 24.7099 
526 33 3 1.008 0.03 0.437881 8.81085 1.09418 147.985 8.81085 1.09418 3 0 0 -0.00945604 -0.0180556 0.00178041 1.09616 1.03153 -4.18197 
3785 237 3 1.008 0.03 8.38479 13.8812 5.13701 8.38479 63.0636 5.13701 0 1 0 -0.0110665 0.0131237 -0.0303076 -10.6 -17.5986 -9.32832 
3676 230 3 1.008 0.03 0.507059 13.192 3.83984 49.6894 13.192 53.0222 1 0 1 -0.00106009 -0.0201744 0.000372491 15.79 -11.627 -11.2331 
2162 136 1 16 -0.4 7.4366 10.5441 6.80867 105.801 10.5441 6.80867 2 0 0 0.00294267 -0.00329076 0.00174169 -16.1174 7.57934 -14.3165 
2170 136 3 1.008 0.03 5.32543 10.145 7.08251 103.69 10.145 7.08251 2 0 0 -0.0109737 -0.0210106 0.00952512 1.83348 6.95759 9.36922 
2884 181 2 12.01 0.14 1.95051 11.8819 6.09793 1.95051 11.8819 -43.0844 0 0 -1 0.0041372 -0.00370893 -0.00636229 2.0509 5.10718 28.0704 
2883 181 2 12.01 0.14 1.2599 12.9978 6.92665 1.2599 12.9978 -42.2557 0 0 -1 0.00158418 0.00515241 0.00217447 37.5764 35.7763 5.4081 
2164 136 2 12.01 0.14 6.16175 10.0274 6.41277 104.526 10.0274 6.41277 2 0 0 -0.00344928 -0.00859477 -0.00529634 17.7137 -22.1535 -35.5746 
2890 181 3 1.008 0.03 2.76645 12.3574 5.49467 2.76645 12.3574 -43.6877 0 0 -1 -0.00815644 0.0233775 -0.0254025 -23.5283 -19.4531 9.53934 
586 37 3 1.008 0.03 3.73692 16.3293 0.76542 52.9193 114.694 49.9478 1 2 1 0.00915743 -0.0179535 -0.0156167 14.5337 -29.779 23.1811 
2887 181 3 1.008 0.03 0.961961 13.8628 6.30628 0.961961 13.8628 -42.8761 0 0 -1 0.0129326 -0.00207312 -0.0286968 1.13034 -11.9664 3.28258 
4289 269 1 16 -0.4 5.70951 8.6594 0.65816 54.8919 57.8418 -48.5242 1 1 -1 0.00732378 0.00749575 -0.000880146 -21.9425 12.5647 2.10749 
9646 604 6 16 -0.53 14.6646 9.25299 7.10569 14.6646 58.4353 7.10569 0 1 0 -0.00126895 -0.00223372 -0.00379061 -29.4959 -1.87563 -54.5306 
878 55 3 1.008 0.03 8.95487 11.3064 3.04819 -40.2275 -37.8759 3.04819 -1 -1 0 -0.000996555 -0.026216 0.00759913 -17.3077 -0.722698 -13.8655 
7806 488 3 1.008 0.03 16.0472 9.29576 1.22998 65.2295 9.29576 1.22998 1 0 0 0.00486458 0.00925447 -0.0076662 9.46117 -37.0052 -16.0925 
3778 237 1 16 -0.4 8.73604 15.0878 6.79736 8.73604 64.2701 6.79736 0 1 0 -0.00261954 -0.00101318 0.00188796 -5.74754 0.504505 3.67883 
9647 604 6 16 -0.53 14.9417 9.56867 4.64079 14.9417 58.751 4.64079 0 1 0 0.00252021 -0.00353941 0.00323516 -4.15024 4.44464 0.638233 
7808 488 3 1.008 0.03 15.1433 10.2673 2.16244 64.3257 10.2673 2.16244 1 0 0 -0.00030565 0.00820078 -0.0140563 -11.4178 4.02487 11.9793 
4956 310 3 1.008 0.03 13.0588 9.62475 2.51642 62.2412 9.62475 2.51642 1 0 0 0.00749771 0.012839 -0.00421116 4.28225 -1.32107 4.45625 
9829 616 8 19 -0.16 12.8842 16.4134 2.11873 62.0666 16.4134 2.11873 1 0 0 -0.000173623 -0.00628222 -0.00152931 -4.14593 -8.01125 3.5268 
9825 616 5 32.06 1.02 11.4395 14.4996 1.15611 60.6219 14.4996 1.15611 1 0 0 -0.000236488 -0.0024337 0.00186917 23.1937 20.5782 -18.8071 
9637 604 4 14.01 -0.66 12.6852 10.0068 5.67144 12.6852 59.1892 5.67144 0 1 0 -0.00154767 -0.00716301 0.00147716 -18.5792 28.6053 -3.62229 
9827 616 6 16 -0.53 10.4677 13.6237 1.70211 59.65 13.6237 1.70211 1 0 0 0.00466814 0.0033952 -0.00251843 -5.24557 -24.8784 9.93091 
4955 310 3 1.008 0.03 11.4447 10.3645 2.61031 60.627 10.3645 2.61031 1 0 0 0.00352453 0.0135274 0.00682456 29.3859 12.4927 -11.4299 
4949 310 2 12.01 0.11 12.5342 10.5578 2.34019 61.7165 10.5578 2.34019 1 0 0 -0.000895188 0.00512353 0.000156338 -26.8663 17.4033 37.1744 
4957 310 3 1.008 0.03 12.9382 11.4082 2.95929 62.1206 11.4082 2.95929 1 0 0 -0.0101965 -0.012973 -0.0169168 -9.78691 -26.4857 -2.58438 
10149 638 6 16 -0.53 15.1909 13.5615 1.65537 15.1909 13.5615 50.8377 0 0 1 0.0047238 -0.00796462 0.00153915 -15.8523 -34.8165 -14.1634 
3786 237 3 1.008 0.03 10.0138 14.5001 5.26255 10.0138 63.6825 5.26255 0 1 0 -0.00853392 -0.0123225 0.0077171 -7.95655 -1.41351 2.05474 
3780 237 2 12.01 0.14 8.95071 14.727 5.43387 8.95071 63.9094 5.43387 0 1 0 -0.00264883 0.00948078 -0.0064465 5.36589 32.9188 -17.2122 
10154 638 8 19 -0.16 15.1519 16.4335 1.83716 15.1519 16.4335 51.0195 0 0 1 -0.00501358 0.000613543 0.00194561 -20.6692 16.8491 5.34067 
10151 638 7 12.01 0.35 16.2411 15.7434 1.93165 16.2411 15.7434 51.114 0 0 1 -0.00213753 0.00104199 0.00371676 11.3404 10.6144 -3.56361 
3663 229 3 1.008 0.03 12.1445 15.2265 5.87955 12.1445 64.4088 5.87955 0 1 0 -0.00853072 0.00863509 0.017034 -10.7131 2.35672 9.14912 
3784 237 3 1.008 0.03 8.79125 15.8402 3.47736 8.79125 65.0226 3.47736 0 1 0 0.022429 -0.0228632 0.0159053 -1.8443 -3.34015 19.0382 
9828 616 7 12.01 0.35 12.0305 15.4931 2.56572 61.2129 15.4931 2.56572 1 0 0 -0.00217257 -0.000419351 0.00358966 9.43586 45.177 17.0969 
9640 604 6 16 -0.53 11.196 12.0454 5.42895 11.196 61.2277 5.42895 0 1 0 0.00053148 0.00937276 0.00126048 -20.8367 9.13763 -8.59067 
9831 616 8 19 -0.16 12.6795 14.8605 3.54289 61.8618 14.8605 3.54289 1 0 0 0.000737215 0.00114253 -0.0015119 -8.79496 -10.972 -14.9169 
9826 616 6 16 -0.53 12.6924 13.9452 0.618726 61.8748 13.9452 0.618726 1 0 0 0.000340318 0.00341546 -0.000130053 -31.6742 -8.36821 5.19634 
4945 310 1 16 -0.4 12.773 11.0162 1.05374 61.9554 11.0162 1.05374 1 0 0 -0.000583591 0.00618385 0.00508652 9.1419 -1.74008 -43.8119 
9645 604 5 32.06 1.02 14.052 9.28092 5.74257 14.052 58.4633 5.74257 0 1 0 9.7281e-05 0.00196673 0.00381489 48.3248 14.4714 75.5802 
10148 638 5 32.06 1.02 15.9785 14.1797 2.68831 15.9785 14.1797 51.8707 0 0 1 -0.00134494 0.00180377 -0.000112227 37.3769 -0.234449 26.0417 
10150 638 6 16 -0.53 15.3655 14.5191 3.92955 15.3655 14.5191 53.1119 0 0 1 0.00342376 0.00398594 -0.000790266 -17.1503 -1.48586 10.701 
9638 604 5 32.06 1.02 12.2948 11.4902 6.1474 12.2948 60.6725 6.1474 0 1 0 -0.000625428 0.00190913 0.00220453 29.9813 -46.3652 16.5384 
2255 141 3 1.008 0.03 15.9548 11.8599 6.70702 15.9548 11.8599 55.8894 0 0 1 -0.0219709 0.00790328 0.0103451 21.1984 8.79954 23.5399 
7798 488 2 12.01 0.11 15.8988 10.2976 1.4226 65.0812 10.2976 1.4226 1 0 0 -0.00525616 0.000109471 0.00558524 -3.85069 47.3417 6.43815 
10152 638 8 19 -0.16 16.5534 15.4829 0.69828 16.5534 15.4829 49.8806 0 0 1 -0.00125113 0.0025577 -0.00847521 20.3351 10.2047 -23.4537 