ITEM: TIMESTEP
4800000
ITEM: NUMBER OF ATOMS
10479
ITEM: BOX BOUNDS pp pp pp
4.0882558190751794e-01 4.9591174418091420e+01
4.0882558190751794e-01 4.9591174418091420e+01
4.0882558190751794e-01 4.9591174418091420e+01
ITEM: ATOMS id mol type mass q x y z xu yu zu ix iy iz vx vy vz fx fy fz 
3953 248 1 16 -0.4 4.06514 3.99537 1.98685 53.2475 3.99537 -47.1955 1 0 -1 -0.00472315 0.00209085 0.000231123 -45.779 30.7864 -26.5761 
3957 248 2 12.01 0.11 5.21479 4.35203 1.26781 54.3971 4.35203 -47.9145 1 0 -1 -0.0046888 0.00611743 0.00424362 13.5061 -11.542 35.3366 
6680 418 3 1.008 0.03 7.39033 5.54117 3.96496 105.755 -92.8235 53.1473 2 -2 1 0.0283821 0.00307637 0.0155795 3.77374 -8.17804 1.84192 
6673 418 1 16 -0.4 8.27188 6.54656 5.62918 106.637 -91.8181 54.8115 2 -2 1 0.000133072 0.0042781 0.00182456 11.4126 -15.4964 -12.7983 
475 30 3 1.008 0.03 8.02548 1.39732 2.1284 57.2078 99.762 51.3107 1 2 1 -0.014976 0.0390496 -0.0357653 -25.4594 -0.573785 32.4291 
3964 248 3 1.008 0.03 6.07549 3.89439 1.80335 55.2578 3.89439 -47.379 1 0 -1 -0.0268547 -0.00864035 0.0276761 -10.3147 6.99867 -10.9354 
2165 136 2 12.01 0.11 1.18796 1.8672 4.98756 99.5527 1.8672 54.1699 2 0 1 0.00488524 -0.00509247 -0.00323386 -0.160674 16.084 11.6843 
3963 248 3 1.008 0.03 5.26796 5.44976 1.44041 54.4503 5.44976 -47.7419 1 0 -1 0.00968782 0.00447207 -0.0145913 13.6796 -11.674 -22.835 
6674 418 1 16 -0.4 5.9934 4.70069 5.76817 104.358 -93.664 54.9505 2 -2 1 -0.00691481 0.000847492 0.00662247 -3.10068 -2.89522 9.63663 
3955 248 2 12.01 0.14 2.94244 4.81322 1.42321 52.1248 4.81322 -47.7591 1 0 -1 0.00627505 0.00453155 -0.00792474 48.1062 -18.2081 11.176 
8128 508 3 1.008 0.03 8.59088 5.42269 1.61906 106.956 5.42269 149.166 2 0 3 -0.0296961 -0.00339449 0.0126806 -7.8269 13.8945 -10.0658 
3959 248 3 1.008 0.03 3.20457 5.88142 1.37853 52.3869 5.88142 -47.8038 1 0 -1 -0.0107175 0.00816338 0.0151536 -3.7957 -5.03561 7.00274 
3961 248 3 1.008 0.03 1.3678 3.58159 2.11051 50.5501 3.58159 -47.0718 1 0 -1 0.00113852 0.0120118 -0.00434103 1.31386 0.735565 5.88305 
3956 248 2 12.01 0.14 1.70207 4.61501 2.23584 50.8844 4.61501 -46.9465 1 0 -1 -0.000449737 -0.00403721 -0.00488439 -1.83497 0.326084 14.9869 
3962 248 3 1.008 0.03 1.92907 4.823 3.32665 51.1114 4.823 -45.8557 1 0 -1 0.0165609 0.0164585 -0.00488855 -10.5195 -2.77975 -26.9294 
3954 248 1 16 -0.4 0.737191 5.46972 1.63482 49.9195 5.46972 -47.5475 1 0 -1 0.000818489 0.00554156 0.00233799 -8.18479 2.83946 17.5501 
6675 418 2 12.01 0.14 7.22391 6.31457 4.70748 105.589 -92.0501 53.8898 2 -2 1 0.00289474 -0.00578772 0.00406461 25.4633 37.5101 -29.0823 
472 30 3 1.008 0.03 6.93984 1.81641 5.42629 56.1222 100.181 54.6086 1 2 1 -0.0129158 -0.00546948 -0.0133585 -1.50037 -43.5555 1.34861 
476 30 3 1.008 0.03 6.33773 1.01142 2.55547 55.5201 99.3761 51.7378 1 2 1 0.0135513 -0.0180003 -0.00436792 6.04563 -12.8455 11.792 
2161 136 1 16 -0.4 0.436547 1.87138 6.22261 98.8012 1.87138 55.405 2 0 1 -8.22558e-05 -0.00344116 0.00445088 23.4914 -11.1352 2.12851 
2173 136 3 1.008 0.03 1.24164 0.952373 4.42708 99.6063 0.952373 53.6094 2 0 1 -0.00229849 -0.0317342 -0.00678219 -3.8427 -16.1625 5.59031 
6679 418 3 1.008 0.03 7.21867 7.23036 4.08804 105.583 -91.1343 53.2704 2 -2 1 -0.00975228 0.00739825 -0.00583899 -8.36074 -6.75913 8.01962 
6676 418 2 12.01 0.14 5.95347 6.07822 5.40564 104.318 -92.2865 54.588 2 -2 1 0.00332477 0.00132176 0.00239862 -38.7238 -34.956 8.37028 
6682 418 3 1.008 0.03 5.07663 6.14361 4.75078 103.441 -92.2211 53.9331 2 -2 1 -0.0210661 -0.023365 -0.0164122 7.9616 10.783 -3.52151 
467 30 2 12.01 0.14 7.08489 0.688395 5.23291 56.2672 99.0531 54.4153 1 2 1 0.00199148 0.00105955 -0.00353502 12.789 51.567 18.436 
4767 298 3 1.008 0.03 1.18871 7.49187 6.74842 50.3711 7.49187 6.74842 1 0 0 -0.00652755 0.00270042 -0.0151244 -12.4485 -2.34511 1.53678 
466 30 1 16 -0.4 4.96027 0.474757 6.42857 54.1426 98.8395 55.6109 1 2 1 -0.000549307 0.00245437 -0.00154235 17.6013 -15.1098 -16.0219 
465 30 1 16 -0.4 7.88299 0.681772 4.05611 57.0653 99.0465 53.2385 1 2 1 -0.00125011 0.00483973 -0.00245133 -11.4194 -30.814 9.62153 
5786 362 3 1.008 0.03 8.52436 3.29201 6.494 -139.023 -45.8903 154.041 -3 -1 3 0.0179237 -0.0107478 0.0334615 1.67078 0.954682 -0.227411 
469 30 2 12.01 0.11 7.28113 1.35284 3.00483 56.4635 99.7175 52.1872 1 2 1 -0.000249351 0.00418288 -0.000181477 16.8338 13.4998 -68.1342 
4766 298 3 1.008 0.03 1.90414 5.88939 6.77163 51.0865 5.88939 6.77163 1 0 0 0.0181 0.00646356 0.00587889 -1.82109 -33.2901 16.2224 
8425 527 3 1.008 0.03 2.14055 1.86048 0.630276 -47.0418 51.0428 49.8126 -1 1 1 -0.000896533 -0.0237833 -0.0233246 -2.32924 6.67224 17.2256 
2171 136 3 1.008 0.03 0.662619 2.5437 4.31932 99.0273 2.5437 53.5017 2 0 1 -0.00399999 0.0148532 -0.0115797 2.2645 3.70734 -1.56922 
2163 136 2 12.01 0.14 1.1844 1.49846 7.41998 99.5491 1.49846 56.6023 2 0 1 -0.00300626 -0.00235164 0.00247039 -3.31868 39.3559 -19.6983 
477 30 3 1.008 0.03 7.05262 2.35506 3.2884 56.235 100.72 52.4707 1 2 1 -0.00958633 0.0251254 -0.0124414 2.35504 16.9242 4.38078 
6687 418 3 1.008 0.03 4.52531 4.8285 7.20026 102.89 -93.5362 56.3826 2 -2 1 0.0149465 0.00950872 -0.0107787 -3.78968 -3.52878 -1.04039 
6688 418 3 1.008 0.03 4.01797 4.39681 5.49709 102.383 -93.9679 54.6794 2 -2 1 0.000803404 -0.00733344 -0.0252182 8.20608 -17.0133 26.5414 
4758 298 2 12.01 0.11 1.99222 6.85651 6.41287 51.1746 6.85651 6.41287 1 0 0 0.00323406 -0.00931824 0.00385944 16.5246 50.2992 -38.8961 
6686 418 3 1.008 0.03 4.92043 3.17747 6.62603 103.285 -95.1872 55.8084 2 -2 1 0.00714527 -0.00867262 -0.0283398 -8.74343 2.28185 -4.76637 
4768 298 3 1.008 0.03 1.97496 6.84128 5.28484 51.1573 6.84128 5.28484 1 0 0 -0.0323809 0.017062 0.00122126 -1.33509 -2.72175 25.9956 
6681 418 3 1.008 0.03 5.76644 6.68157 6.27432 104.131 -91.6831 55.4567 2 -2 1 0.00759383 -0.00591007 -0.00102318 4.15448 10.8155 5.75991 
6296 394 3 1.008 0.03 8.57565 8.57703 1.11799 57.758 57.7594 148.665 1 1 3 -0.0157495 0.006256 -0.0052932 -0.562352 -9.40239 -9.3296 
6678 418 2 12.01 0.11 4.76853 4.2201 6.32501 103.133 -94.1446 55.5074 2 -2 1 -0.00667389 0.00498187 -0.0054943 5.70365 22.1005 -26.0494 
8423 527 3 1.008 0.03 4.70538 1.66266 0.57079 -44.477 50.845 49.7531 -1 1 1 -0.0232701 -0.0235525 -0.0183897 -10.0283 3.85135 1.04912 
2172 136 3 1.008 0.03 2.2235 2.21014 5.09542 100.588 2.21014 54.2778 2 0 1 -0.010416 -0.00115647 0.00619978 -5.06558 3.48973 3.11452 
2167 136 3 1.008 0.03 2.09856 0.966931 7.17787 100.463 0.966931 56.3602 2 0 1 0.00632042 -0.0153661 0.0139824 2.66314 -4.74019 0.240012 
4754 298 1 16 -0.4 3.18104 7.52617 6.82061 52.3634 7.52617 6.82061 1 0 0 -0.00214404 -0.00613624 0.000182385 -3.79169 -1.23939 23.4202 
6684 418 3 1.008 0.03 9.90022 6.57238 4.22396 108.265 -91.7923 53.4063 2 -2 1 0.0234102 0.0245991 0.0330556 -11.8153 -3.15279 -0.0227256 
6683 418 3 1.008 0.03 9.41043 4.96187 4.85851 107.775 -93.4028 54.0409 2 -2 1 -0.0194049 0.000372402 0.0251541 4.24129 0.434488 0.882771 
6677 418 2 12.01 0.11 9.49476 6.02689 5.08729 107.859 -92.3378 54.2696 2 -2 1 0.0042335 0.0113237 -0.00488732 -21.9073 10.9737 -18.0182 
8127 508 3 1.008 0.03 8.66873 3.83756 2.15019 107.033 3.83756 149.697 2 0 3 -0.00562951 -0.0101367 -0.0246083 -9.35613 -16.2357 10.5725 
8118 508 2 12.01 0.11 9.14778 4.51773 1.4972 107.512 4.51773 149.044 2 0 3 -0.00329631 -0.0033998 -0.00351814 22.9052 -23.6906 -28.4575 
6685 418 3 1.008 0.03 10.225 6.19238 5.79954 108.59 -92.1723 54.9819 2 -2 1 0.00580696 -0.0191005 -0.0425557 27.3393 -1.89316 27.8625 
8360 523 3 1.008 0.03 14.4148 0.916867 5.58877 63.5971 0.916867 54.7711 1 0 1 -0.0154591 -0.0288354 0.0050314 -9.77217 10.2367 -4.53774 
8114 508 1 16 -0.4 10.4784 4.65361 1.97112 108.843 4.65361 149.518 2 0 3 0.00257043 0.00531466 -0.00237388 -3.39406 -0.0503953 -3.54439 
5790 362 3 1.008 0.03 10.563 0.89057 6.13204 -136.984 -48.2918 153.679 -3 -1 3 0.000906948 -0.00921915 -0.0103857 -5.56896 8.43097 -9.85649 
5782 362 2 12.01 0.11 10.5879 1.8449 5.59423 -136.959 -47.3375 153.141 -3 -1 3 0.0073108 -0.00128414 -0.00191652 19.304 -12.3632 6.52562 
5792 362 3 1.008 0.03 11.5272 1.88334 5.05416 -136.02 -47.299 152.601 -3 -1 3 0.00199375 0.0159417 0.0018236 3.64254 -0.201884 -1.87238 
8122 508 3 1.008 0.03 10.6005 6.70426 1.8423 108.965 6.70426 149.389 2 0 3 -0.0086611 0.000124978 -0.00587979 16.4394 -23.0662 -19.1836 
8116 508 2 12.01 0.14 11.1492 5.79142 1.45091 109.514 5.79142 148.998 2 0 3 0.00122836 -0.00506316 0.00536166 -34.1254 20.9673 -6.77499 
8121 508 3 1.008 0.03 12.0929 5.73478 1.95379 110.458 5.73478 149.501 2 0 3 -0.0147034 0.0373438 0.010094 14.3874 4.5342 1.13291 
5780 362 2 12.01 0.14 9.33678 3.05702 7.18511 -138.21 -46.1253 154.732 -3 -1 3 0.000255218 -0.00133699 0.00924061 -23.5081 -10.0693 -8.82662 
5778 362 1 16 -0.4 10.5341 2.8982 6.47107 -137.013 -46.2841 154.018 -3 -1 3 0.00124576 -0.000988341 -0.00506459 19.9881 23.9733 18.9451 
290 19 1 16 -0.4 14.5371 4.83068 6.42471 14.5371 103.195 -42.7576 0 2 -1 0.00338198 0.00473413 -0.00279474 14.2586 1.17201 -8.97526 
298 19 3 1.008 0.03 16.392 4.15131 5.91148 16.392 102.516 -43.2709 0 2 -1 0.0273078 0.00806003 4.64061e-06 -36.7402 -4.49062 -19.4836 
291 19 2 12.01 0.14 15.1752 4.36138 4.13608 15.1752 102.726 -45.0463 0 2 -1 -0.00104097 0.00538549 -0.00588662 -16.4307 -16.4195 -46.1544 
292 19 2 12.01 0.14 15.3119 3.98953 5.54988 15.3119 102.354 -43.6325 0 2 -1 0.00103422 -0.000155023 0.000612391 54.2577 -11.7917 73.8111 
297 19 3 1.008 0.03 15.139 2.91277 5.78948 15.139 101.277 -43.3929 0 2 -1 -0.00440187 0.00422243 -0.0257244 0.532294 19.2302 -11.4729 
295 19 3 1.008 0.03 14.1211 4.19434 3.9044 14.1211 102.559 -45.278 0 2 -1 0.00717789 0.0118381 -0.0222494 2.70496 4.01533 -7.66822 
294 19 2 12.01 0.11 13.198 4.44997 6.49054 13.198 102.815 -42.6918 0 2 -1 -0.00429525 -0.00120504 -0.00470724 -20.4556 -18.998 37.9361 
302 19 3 1.008 0.03 12.6669 4.5473 5.58584 12.6669 102.912 -43.5965 0 2 -1 -0.00568815 0.0115407 0.000510114 -9.88287 10.7754 -21.8938 
289 19 1 16 -0.4 15.5068 5.70247 3.98211 15.5068 104.067 -45.2002 0 2 -1 -0.00582714 0.00335363 0.00516244 11.1058 9.39405 -38.0426 
293 19 2 12.01 0.11 15.6205 6.03286 2.56265 15.6205 104.398 -46.6197 0 2 -1 0.00372818 -0.00290417 -0.00112268 -29.8864 13.4794 35.1008 
299 19 3 1.008 0.03 14.5947 5.91749 2.10774 14.5947 104.282 -47.0746 0 2 -1 0.0150159 -0.00928961 -0.0198342 24.6822 9.15374 5.05557 
5791 362 3 1.008 0.03 9.82276 2.02308 4.89805 -137.724 -47.1593 152.445 -3 -1 3 -0.00623092 -0.02632 -0.00384826 -21.3063 -8.72342 -19.4739 
300 19 3 1.008 0.03 15.9786 7.07846 2.59687 15.9786 105.443 -46.5855 0 2 -1 -0.0120108 0.016193 0.00893582 -8.31676 -9.41456 -12.1518 
7240 453 3 1.008 0.03 13.457 8.21827 4.15409 111.822 106.583 53.3364 2 2 1 0.0047842 -0.0155231 0.0248801 -2.7762 17.4964 -0.510014 
296 19 3 1.008 0.03 15.7432 3.75813 3.37895 15.7432 102.123 -45.8034 0 2 -1 -0.0143286 -0.01144 0.0149088 -5.19123 2.2086 25.2286 
301 19 3 1.008 0.03 16.3306 5.45692 1.98916 16.3306 103.822 -47.1932 0 2 -1 0.00376771 -0.0128102 -0.0171917 6.75761 -6.59958 -0.0265053 
303 19 3 1.008 0.03 13.1738 3.36208 6.66658 13.1738 101.727 -42.5158 0 2 -1 0.0019386 -0.0249756 0.0278661 -4.53836 10.3268 5.65217 
304 19 3 1.008 0.03 12.612 4.95887 7.31169 12.612 103.324 -41.8707 0 2 -1 0.0177268 -0.019639 0.0220512 17.1657 -9.94297 -19.1406 
4011 251 3 1.008 0.03 13.352 2.47116 1.31037 62.5343 100.836 198.04 1 2 4 -0.00696634 -0.00763207 -0.0315947 15.3408 9.08727 -7.05193 
8791 550 3 1.008 0.03 15.6086 7.68185 6.1994 -82.7561 204.411 55.3817 -2 4 1 -0.0178606 0.0131194 0.00235932 3.50949 19.9862 -13.3614 
7234 453 1 16 -0.4 12.9538 8.12978 1.63913 111.319 106.494 50.8215 2 2 1 -0.000524922 -0.00386419 -0.000395752 25.6424 15.8597 -32.2175 
7241 453 3 1.008 0.03 11.3126 8.39556 2.87458 109.677 106.76 52.0569 2 2 1 0.0123612 -0.0330825 -0.0178847 16.0142 9.02669 -5.18983 
8787 550 2 12.01 0.14 16.3265 8.19741 5.51475 -82.0382 204.927 54.6971 -2 4 1 -0.00461782 -0.0042903 -0.00107183 -6.04728 -19.3069 17.9565 
8365 523 3 1.008 0.03 13.9982 1.16353 3.08057 63.1806 1.16353 52.2629 1 0 1 -0.00164784 0.000827672 -0.00322797 5.28883 31.6068 1.90809 
8792 550 3 1.008 0.03 15.8677 8.25564 4.52915 -82.497 204.985 53.7115 -2 4 1 0.0120313 -0.00173668 -0.0167418 2.57519 -20.5334 -2.41797 
4008 251 3 1.008 0.03 16.1466 1.58615 0.652559 65.3289 99.9508 197.382 1 2 4 -0.00130216 0.00507997 -0.00849605 3.3516 -39.3765 28.6033 
8126 508 3 1.008 0.03 9.15248 4.03431 0.457802 107.517 4.03431 148.005 2 0 3 0.014401 -0.014065 -0.00675511 -6.47439 24.285 31.7234 
208 13 3 1.008 0.03 9.53238 8.51198 7.39691 107.897 -40.6704 7.39691 2 -1 0 0.00483648 0.0253079 0.0165594 14.4236 9.40226 -13.3643 
4007 251 3 1.008 0.03 15.828 3.20011 0.759488 65.0104 101.565 197.489 1 2 4 0.00586712 0.0117959 0.0104046 11.9196 2.56207 -13.1003 
9598 601 8 19 -0.16 17.9529 0.777066 2.60591 -31.2294 49.9594 2.60591 -1 1 0 0.000976316 -0.00453425 -0.00442369 -11.1521 -4.45724 3.82135 
2878 180 3 1.008 0.03 20.9555 7.4539 1.98315 20.9555 105.819 -47.1992 0 2 -1 0.0173001 -0.0116186 0.00710328 14.3624 -16.1342 -19.5647 
7862 492 2 12.01 0.11 23.691 0.410316 5.55846 -25.4913 49.5927 5.55846 -1 1 0 -0.00233627 -0.000955421 -0.00629769 7.9408 59.5343 -53.5355 
9599 601 8 19 -0.16 19.2372 1.16748 0.985701 -29.9451 50.3498 0.985701 -1 1 0 -0.00857566 0.00109397 0.00126136 0.665996 -10.5611 -8.32903 
2870 180 2 12.01 0.11 21.3809 6.71444 1.23983 21.3809 105.079 -47.9425 0 2 -1 0.00563845 0.00660553 -0.00337861 -35.8535 -11.7684 -6.93949 
8794 550 3 1.008 0.03 17.3171 6.39157 6.15138 -81.0476 203.121 55.3337 -2 4 1 0.00875861 -0.00976881 -0.0111023 -0.631823 -17.2826 1.10206 
7870 492 3 1.008 0.03 23.6351 1.56452 5.30709 -25.5472 50.7469 5.30709 -1 1 0 -0.0307118 0.020948 -0.00870301 12.6792 -58.1644 19.6665 
9601 601 6 16 -0.53 20.118 0.62326 6.05817 -29.0643 49.8056 6.05817 -1 1 0 -0.00323584 -0.00603598 0.00539664 -8.95169 32.7559 10.6783 
9602 601 6 16 -0.53 17.8548 1.67058 6.3784 -31.3276 50.8529 6.3784 -1 1 0 0.00364045 -0.00125746 0.00523821 68.4581 3.60571 -24.5369 
9595 601 6 16 -0.53 20.9525 0.826875 3.34963 -28.2299 50.0092 3.34963 -1 1 0 -0.00137703 3.90562e-05 0.00116024 -19.8809 10.2409 2.83925 
9594 601 6 16 -0.53 20.9171 3.14891 2.69829 -28.2652 52.3313 2.69829 -1 1 0 -0.00614687 0.00224669 -0.00472189 8.46863 41.8492 -23.862 
9596 601 7 12.01 0.35 18.7611 1.67762 2.09644 -30.4212 50.86 2.09644 -1 1 0 -0.000727548 -0.000773993 0.00613688 54.4661 -2.14353 -3.99266 
9592 601 4 14.01 -0.66 19.3202 2.46553 4.46234 -29.8621 51.6479 4.46234 -1 1 0 -0.00138359 -0.00230436 0.000291523 1.89099 -0.757381 18.9627 
9593 601 5 32.06 1.02 20.1979 2.07533 3.25385 -28.9844 51.2577 3.25385 -1 1 0 9.22813e-06 8.83051e-05 -0.00498227 -19.0328 -53.7857 -5.88793 
9597 601 8 19 -0.16 18.0597 2.70092 1.69223 -31.1227 51.8833 1.69223 -1 1 0 0.000232561 0.0029338 -0.00513059 -10.9456 16.4548 11.5691 
9600 601 5 32.06 1.02 19.2531 1.80867 5.87411 -29.9293 50.991 5.87411 -1 1 0 -0.00106102 -0.00302347 -0.00442601 -63.2955 -27.9652 11.6242 
8799 550 3 1.008 0.03 18.4478 5.14917 4.33132 -79.9169 201.879 53.5137 -2 4 1 -0.00648958 0.0052351 0.00327606 2.36512 0.0937998 2.48868 
7984 499 3 1.008 0.03 22.7208 8.59321 2.5714 -75.6439 -89.7715 51.7537 -2 -2 1 -0.00648153 -0.0139845 0.00679657 36.4756 21.3497 -3.70948 
9604 601 8 19 -0.16 19.1062 4.1948 6.88439 -30.0762 53.3772 6.88439 -1 1 0 -0.00060054 0.00295398 0.00691273 6.05516 17.9618 -4.99385 
9603 601 7 12.01 0.35 19.939 3.18181 6.86991 -29.2433 52.3642 6.86991 -1 1 0 0.00512444 0.00422202 0.00784343 -9.2517 -30.5761 -9.41107 
9606 601 8 19 -0.16 21.1297 3.52911 6.43629 -28.0526 52.7115 6.43629 -1 1 0 -0.00740772 0.00214084 0.000161961 4.33411 14.5239 -3.35687 
8793 550 3 1.008 0.03 18.344 7.75791 6.31336 -80.0207 204.487 55.4957 -2 4 1 0.021393 -0.00193906 -0.0107124 10.0888 12.1354 21.7034 
8800 550 3 1.008 0.03 19.5586 6.1109 3.36541 -78.8061 202.84 52.5478 -2 4 1 0.00024848 -0.000794165 -0.0181106 5.5003 -3.60867 -2.24917 
8790 550 2 12.01 0.11 19.0588 6.05516 4.32304 -79.3059 202.785 53.5054 -2 4 1 -0.00128388 0.000500426 -0.00865398 -28.272 19.9272 -10.1428 
8798 550 3 1.008 0.03 19.7718 6.04627 5.11812 -78.5929 202.776 54.3005 -2 4 1 -0.0143015 -0.0312803 -0.00384217 12.3668 -3.52585 9.77779 
8786 550 1 16 -0.4 18.2205 7.22255 4.41908 -80.1442 203.952 53.6014 -2 4 1 -0.00453132 0.00163989 -0.00295864 4.93045 -20.559 6.96517 
8788 550 2 12.01 0.14 17.6019 7.32042 5.70627 -80.7628 204.05 54.8886 -2 4 1 0.00188273 0.0103986 0.00214214 -11.1731 23.1694 -46.0215 
2880 180 3 1.008 0.03 21.9486 5.91865 1.74566 21.9486 104.283 -47.4367 0 2 -1 -0.0186062 -0.0240239 0.000738254 -6.87316 7.46397 5.39136 
2879 180 3 1.008 0.03 20.4874 6.21891 0.73806 20.4874 104.584 -48.4443 0 2 -1 -0.0134908 0.0116006 0.00567594 24.2571 13.245 16.4443 
7865 492 3 1.008 0.03 22.5938 1.8262 7.42775 -26.5886 51.0086 7.42775 -1 1 0 -0.00975525 -0.00193528 -0.00441762 12.7251 -6.10889 11.1964 
7100 444 3 1.008 0.03 0.549525 15.2879 2.33961 49.7319 64.4703 -46.8427 1 1 -1 0.0146858 -0.0189812 0.00358573 -29.9613 33.0706 17.0099 
7089 444 1 16 -0.4 0.664104 15.4742 4.2788 49.8465 64.6565 -44.9035 1 1 -1 -0.000430574 -0.000763286 -0.00181068 -12.9126 16.7554 -2.38392 
6295 394 3 1.008 0.03 8.1802 10.1705 0.616845 57.3626 59.3528 148.164 1 1 3 -0.000530184 0.00603562 0.00623253 -17.6042 -38.4921 -13.9602 
7092 444 2 12.01 0.14 0.775886 13.511 5.66026 49.9582 62.6934 -43.5221 1 1 -1 0.000509363 -6.27678e-05 -0.0136671 0.71313 2.73414 13.7407 
2057 129 3 1.008 0.03 3.9041 9.03924 4.69405 53.0864 58.2216 53.8764 1 1 1 -0.00646985 0.0354948 0.00372635 14.1741 -28.5535 -11.8155 
2063 129 3 1.008 0.03 1.99151 10.6668 2.15598 51.1739 59.8491 51.3383 1 1 1 -0.0099486 0.00690902 -0.0122523 -3.80826 13.3064 -14.4907 
2053 129 2 12.01 0.11 7.00116 11.6491 5.43845 56.1835 60.8314 54.6208 1 1 1 -0.00560402 -0.00137659 0.00282801 6.2988 -29.0003 7.09659 
2055 129 3 1.008 0.03 5.02582 10.2853 6.53181 54.2082 59.4677 55.7142 1 1 1 0.0183454 -0.0237865 0.0119749 0.501965 8.13239 -5.67494 
2056 129 3 1.008 0.03 4.44404 11.7657 5.88619 53.6264 60.9481 55.0685 1 1 1 0.0244475 -0.00770258 0.0146108 2.4265 10.2929 -3.78542 
4359 273 3 1.008 0.03 4.10254 13.4035 2.1641 4.10254 13.4035 198.893 0 0 4 -0.00226222 0.00232888 0.00950655 -2.42936 -4.88966 -4.24815 
2059 129 3 1.008 0.03 7.57983 11.1459 6.20607 56.7622 60.3282 55.3884 1 1 1 -0.0313712 -0.00550815 -0.0148981 -5.84702 -3.88294 6.38508 
2049 129 1 16 -0.4 6.06671 10.7754 4.83009 55.2491 59.9578 54.0124 1 1 1 -0.0037382 0.00644448 -0.00117058 -29.812 9.13753 9.71484 
2051 129 2 12.01 0.14 4.8137 10.7946 5.59042 53.996 59.977 54.7728 1 1 1 -0.00108915 -0.000547216 0.00453839 21.2294 -23.749 9.37766 
2050 129 1 16 -0.4 3.24193 10.8584 3.83845 52.4243 60.0408 53.0208 1 1 1 0.00487046 0.00228542 0.000326273 -13.8072 -46.097 -16.4137 
2052 129 2 12.01 0.14 3.6709 10.0244 4.94429 52.8532 59.2068 54.1266 1 1 1 -0.0012168 -0.000608108 0.00488943 -6.50259 54.2814 -35.0075 
2058 129 3 1.008 0.03 2.78937 9.97322 5.52697 51.9717 59.1556 54.7093 1 1 1 -0.0102822 -0.00853983 0.0149158 -11.7435 -2.40705 22.9699 
4356 273 2 12.01 0.14 4.10565 14.5831 3.9777 4.10565 14.5831 200.707 0 0 4 -0.000873672 0.00443118 -0.00242238 35.1933 -9.22981 -15.9754 
4354 273 1 16 -0.4 5.03586 15.4502 4.66112 5.03586 15.4502 201.391 0 0 4 0.0014835 -0.00558522 -0.00354935 -14.3848 -13.1771 -3.08567 
4361 273 3 1.008 0.03 3.15829 15.0718 3.83453 3.15829 15.0718 200.564 0 0 4 0.00598176 -0.00458625 0.0179636 -4.96521 7.84089 -10.0411 
2054 129 2 12.01 0.11 2.39948 10.0568 2.92365 51.5818 59.2391 52.106 1 1 1 -0.00196517 0.00947489 -0.00079632 -19.8778 22.4161 59.7056 
4362 273 3 1.008 0.03 3.84667 13.677 4.50373 3.84667 13.677 201.233 0 0 4 0.00997575 -0.00448666 0.0320672 3.17389 -1.29902 13.8295 
4367 273 3 1.008 0.03 5.11434 14.5537 6.47716 5.11434 14.5537 203.207 0 0 4 -0.0141439 -0.00636648 -0.0142575 3.14047 -9.75572 9.43449 
4355 273 2 12.01 0.14 4.81923 14.022 2.68843 4.81923 14.022 199.418 0 0 4 -0.000727185 -0.00116983 0.00351249 -32.3462 -4.22499 26.8877 
2064 129 3 1.008 0.03 2.92633 9.27298 2.45244 52.1087 58.4553 51.6348 1 1 1 0.0175695 -0.0265921 0.021367 8.84406 -17.8044 -6.23091 
4360 273 3 1.008 0.03 5.6816 13.4187 2.89491 5.6816 13.4187 199.624 0 0 4 -0.00147719 0.0104113 0.0144979 7.26083 -9.22887 10.3876 
4353 273 1 16 -0.4 5.2352 15.0395 1.88599 5.2352 15.0395 198.615 0 0 4 0.000199503 -0.00417583 0.000591974 6.25743 33.2738 -14.7138 
4366 273 3 1.008 0.03 3.76889 15.6657 6.31782 3.76889 15.6657 203.047 0 0 4 -0.0140579 -0.0151265 0.0146167 -15.8654 -0.702363 -0.95318 
4358 273 2 12.01 0.11 4.78813 15.4807 6.05039 4.78813 15.4807 202.78 0 0 4 -0.00285969 0.00232961 -0.00231389 14.016 18.1013 -3.63606 
5326 333 3 1.008 0.03 8.32526 15.5746 3.90466 57.5076 113.939 102.269 1 2 2 0.0174611 0.00148195 0.00795885 -8.63858 8.14711 1.96181 
6299 394 3 1.008 0.03 5.61311 10.4142 1.01725 54.7955 59.5966 148.564 1 1 3 -0.0264392 0.0316738 0.0010424 2.80938 17.0908 -2.20139 
2060 129 3 1.008 0.03 7.76272 11.9784 4.78633 56.9451 61.1608 53.9687 1 1 1 -0.0110771 -0.000517808 0.0210625 10.3391 9.23917 -21.5082 
2061 129 3 1.008 0.03 6.51746 12.4759 5.87401 55.6998 61.6582 55.0564 1 1 1 -0.00969055 -0.02825 -0.0151182 -5.84158 25.5275 9.01185 
6293 394 2 12.01 0.11 5.82791 9.46571 1.45798 55.0103 58.6481 149.005 1 1 3 -0.00322256 0.00278112 -0.00387974 -19.5765 -12.624 11.6576 
2062 129 3 1.008 0.03 1.49243 9.63708 3.4707 50.6748 58.8194 52.653 1 1 1 -0.0114608 0.00529343 -0.00677874 28.1852 9.3452 -14.7124 
5327 333 3 1.008 0.03 7.42843 16.644 5.07397 56.6108 115.009 103.439 1 2 2 0.00488123 0.024449 0.000739492 17.1389 -2.68433 -10.7368 
5318 333 2 12.01 0.11 8.27275 16.5826 4.34181 57.4551 114.947 102.707 1 2 2 0.000661618 -0.00246456 0.0016412 -11.1284 -12.4475 19.0756 
7098 444 3 1.008 0.03 1.7849 13.2664 5.30162 50.9672 62.4488 -43.8807 1 1 -1 -0.0199451 0.0218356 -0.00275133 -6.9794 -1.34977 0.607055 
6300 394 3 1.008 0.03 4.83478 9.02264 1.63549 54.0171 58.205 149.183 1 1 3 0.0153514 0.000244962 0.0103714 12.6452 -2.47345 -12.3768 
7090 444 1 16 -0.4 0.8144 14.1271 6.93525 49.9967 63.3094 -42.2471 1 1 -1 0.00317406 -0.000268515 -0.0039932 -5.76407 27.7062 -18.8059 
4368 273 3 1.008 0.03 5.34871 16.3193 6.48488 5.34871 16.3193 203.214 0 0 4 -0.00809038 0.0135562 -0.00469129 1.40182 -10.9715 -0.256 
4357 273 2 12.01 0.11 5.72519 14.619 0.63602 5.72519 14.619 197.365 0 0 4 0.00220726 0.00652641 0.00543938 52.4985 7.08724 -29.1464 
4363 273 3 1.008 0.03 6.27483 13.6375 0.60728 6.27483 13.6375 197.337 0 0 4 -0.00693963 0.0163144 0.0382839 -12.7446 19.0379 6.29728 
6301 394 3 1.008 0.03 6.16744 9.5444 2.48185 55.3498 58.7268 150.029 1 1 3 -0.00672282 -0.00644537 -0.00871979 15.266 4.58876 0.706448 
6289 394 1 16 -0.4 6.60983 8.67606 0.583224 55.7922 57.8584 148.13 1 1 3 0.000595785 -0.00324109 -0.00516095 -12.5213 -13.4395 -1.3714 
5116 320 3 1.008 0.03 2.17482 13.8177 0.561815 100.54 63.0001 98.9265 2 1 2 0.0254701 0.0227679 -0.00790779 11.0551 4.13299 2.76784 
7248 453 3 1.008 0.03 13.867 9.83875 0.536424 112.232 108.203 49.7188 2 2 1 0.00437904 0.0219924 -0.00386621 -7.50479 -23.2058 7.07695 
9440 590 3 1.008 0.03 8.61711 13.6615 2.7747 57.7995 13.6615 101.139 1 0 2 0.0194207 -0.0105707 0.00849749 9.39915 4.26917 -15.0314 
9438 590 3 1.008 0.03 9.01024 14.2354 1.1105 58.1926 14.2354 99.4752 1 0 2 0.00395148 0.0269784 0.0145437 3.33538 -13.5879 5.90642 
7245 453 3 1.008 0.03 12.9081 8.64264 6.50195 111.273 107.007 55.6843 2 2 1 0.0112244 -0.00643603 -0.00548748 7.03342 -16.6426 0.0906663 
7246 453 3 1.008 0.03 14.8688 8.84746 1.53588 113.233 107.212 50.7182 2 2 1 -0.0202774 0.0289178 0.000938958 17.753 -0.695238 4.84016 
7237 453 2 12.01 0.11 12.9541 9.63348 6.10435 111.319 107.998 55.2867 2 2 1 -0.00442503 0.0125875 0.00462281 -3.69889 37.8332 8.55082 
7337 459 3 1.008 0.03 16.7793 13.0402 1.34728 -81.5854 160.587 50.5296 -2 3 1 -0.0131544 -0.00280647 0.0168062 -7.0492 -9.80169 -11.7604 
7244 453 3 1.008 0.03 12.3751 10.2324 6.86215 110.74 108.597 56.0445 2 2 1 -0.00401714 -0.0103996 0.000822183 21.1063 -6.88995 -16.8843 
7243 453 3 1.008 0.03 14.0223 9.99409 5.95039 112.387 108.359 55.1327 2 2 1 -0.0246991 0.00515149 -0.0177824 -30.0691 -7.15993 15.5493 
9430 590 2 12.01 0.11 9.31172 13.531 1.91232 58.4941 13.531 100.277 1 0 2 -0.000483451 0.00929095 0.004621 18.468 26.3973 35.0673 
7239 453 3 1.008 0.03 13.8146 9.91513 3.75325 112.179 108.28 52.9356 2 2 1 0.0112456 0.0166416 -0.0308806 21.4769 10.6262 -13.9502 
7242 453 3 1.008 0.03 11.8908 9.85376 2.10128 110.256 108.218 51.2836 2 2 1 -0.00416872 0.0110361 -0.0243537 1.744 2.43038 -0.246779 
7233 453 1 16 -0.4 12.2353 9.72069 4.8909 110.6 108.085 54.0733 2 2 1 0.00639319 0.00256179 0.00310082 -7.54226 -3.14346 6.41572 
7235 453 2 12.01 0.14 13.035 9.21171 3.86583 111.4 107.576 53.0482 2 2 1 0.00240639 0.00201146 -0.00393519 -6.04624 -39.3724 -10.356 
9439 590 3 1.008 0.03 9.19812 12.5055 1.68298 58.3805 12.5055 100.048 1 0 2 -0.0112988 -0.000240992 -0.0372136 -5.80891 -19.1209 -18.1918 
9433 590 3 1.008 0.03 10.7542 12.0206 3.54473 59.9366 12.0206 101.909 1 0 2 -0.00815648 0.00468701 -0.0119891 8.01312 7.47321 1.62338 
9432 590 3 1.008 0.03 12.5107 14.6922 3.94218 61.6931 14.6922 102.307 1 0 2 -0.0323988 0.0420233 0.0089105 -10.9272 -34.6146 -8.71435 
9436 590 3 1.008 0.03 13.6559 13.9147 1.77052 62.8383 13.9147 100.135 1 0 2 -0.00124981 -0.00027275 -0.0167989 1.57787 -4.69486 3.82158 
9429 590 2 12.01 0.11 13.5238 12.888 2.13915 62.7061 12.888 100.504 1 0 2 0.000915536 0.00307456 -0.00669727 34.9829 -13.3315 -8.24211 
9437 590 3 1.008 0.03 14.4379 12.2797 1.9119 63.6202 12.2797 100.277 1 0 2 -0.0189705 -0.00686783 -0.0235374 -15.353 16.8575 0.325809 
9435 590 3 1.008 0.03 12.7488 12.4173 1.54664 61.9311 12.4173 99.9113 1 0 2 0.00874684 -0.0295643 -0.0054533 -8.91167 -2.30435 4.73459 
9428 590 2 12.01 0.14 10.9249 13.1107 3.57905 60.1073 13.1107 101.944 1 0 2 0.00610282 -0.00472246 0.00355549 -7.2014 13.801 29.4614 
9425 590 1 16 -0.4 13.4056 12.8059 3.54964 62.588 12.8059 101.914 1 0 2 -0.00511335 -0.000396092 0.0039472 -5.13018 -3.32763 -6.91473 
9427 590 2 12.01 0.14 12.3281 13.5705 4.03653 61.5104 13.5705 102.401 1 0 2 -0.00116494 0.00305328 -0.000530739 -4.29644 37.9993 11.9595 
9431 590 3 1.008 0.03 12.3225 13.5149 5.11554 61.5048 13.5149 103.48 1 0 2 -0.00146847 -0.00229234 -0.00647068 4.08055 -10.0585 6.60295 
9426 590 1 16 -0.4 10.7021 13.7197 2.32713 59.8845 13.7197 100.692 1 0 2 0.00128259 0.0014665 0.00348253 -41.2939 3.31942 -11.96 
9434 590 3 1.008 0.03 10.2332 13.5315 4.38013 59.4156 13.5315 102.745 1 0 2 -6.04419e-05 -0.0290015 0.00659495 13.5601 -12.4054 -27.826 
2986 187 3 1.008 0.03 16.5383 13.7548 5.69217 65.7206 13.7548 104.057 1 0 2 0.0120091 0.0161757 0.0146182 -10.972 -3.50916 20.4642 
7236 453 2 12.01 0.14 12.2392 8.93579 2.57069 110.604 107.3 51.753 2 2 1 -0.00103085 -0.00357339 -0.00360585 -11.1806 5.38952 10.5789 
7238 453 2 12.01 0.11 14.0488 8.7803 0.859485 112.413 107.145 50.0418 2 2 1 -0.00091938 -0.00162389 0.00288281 -38.0055 -7.49888 -4.10602 
7689 481 3 1.008 0.03 9.08693 13.8434 6.54154 9.08693 161.39 6.54154 0 3 0 -0.00374082 0.0183141 0.0332175 -0.492262 22.9744 40.0087 
2982 187 2 12.01 0.11 15.2123 15.7902 4.44299 64.3947 15.7902 102.808 1 0 2 0.00239453 0.00407441 -0.000824687 -14.6391 -9.04918 -30.5277 
2991 187 3 1.008 0.03 14.8073 15.496 5.34621 63.9897 15.496 103.711 1 0 2 -0.00918876 0.00766113 -0.0123856 -20.1348 7.37218 39.2976 
2978 187 1 16 -0.4 16.5237 15.3764 4.4907 65.7061 15.3764 102.855 1 0 2 -0.00502078 -0.00794886 0.0114217 16.1459 23.9869 -21.5049 
5314 333 1 16 -0.4 9.53903 16.7791 4.92972 58.7214 115.144 103.294 1 2 2 0.00870748 0.00270366 0.00187973 23.265 0.297315 7.82894 
1642 103 3 1.008 0.03 13.5962 16.7229 0.491482 -133.951 16.7229 49.6738 -3 0 1 -0.00102279 0.00200598 -0.000797317 -4.01528 16.3764 -9.66036 
7690 481 3 1.008 0.03 9.66799 15.31 7.3708 9.66799 162.857 7.3708 0 3 0 -0.00271226 0.00298149 -0.00757839 -0.0509524 11.2394 0.683157 
2985 187 3 1.008 0.03 16.145 13.2618 4.03754 65.3273 13.2618 102.402 1 0 2 -0.0046831 -0.0114573 0.0204352 -0.79523 32.4387 11.0872 
2980 187 2 12.01 0.14 16.6842 14.0229 4.67856 65.8666 14.0229 103.043 1 0 2 0.0123531 -0.00885545 0.00392989 45.2431 -72.6007 -18.1553 
8785 550 1 16 -0.4 16.4847 9.56285 5.79674 -81.88 206.292 54.9791 -2 4 1 0.00787415 0.00126433 -0.00653043 9.49422 3.90611 7.5391 
2990 187 3 1.008 0.03 14.5956 15.2031 3.7579 63.778 15.2031 102.123 1 0 2 -0.021356 0.0225167 0.0279255 11.0608 5.64552 -7.55179 
7696 481 3 1.008 0.03 10.3585 11.9245 6.84656 10.3585 159.472 6.84656 0 3 0 0.0262775 -0.0058991 0.00374967 5.23087 -3.08171 -21.6506 
2603 163 3 1.008 0.03 17.2925 16.1822 1.51476 17.2925 -82.1825 99.8795 0 -2 2 -0.0085384 -0.016248 -0.0106676 14.0049 6.45275 11.8192 
7332 459 2 12.01 0.14 17.3946 13.1016 0.439376 -80.9701 160.649 49.6217 -2 3 1 -0.000542434 0.000869675 -0.00157196 -3.61415 -6.53833 36.6431 
7983 499 3 1.008 0.03 24.5183 9.05651 2.12582 -73.8464 -89.3082 51.3082 -2 -2 1 0.00894798 0.00487122 -0.00580066 -29.6548 6.06895 6.75884 
7974 499 2 12.01 0.11 23.5505 9.3812 2.62027 -74.8142 -88.9835 51.8026 -2 -2 1 0.00364944 0.00665791 -0.00684725 5.63073 -40.1222 1.07414 
7982 499 3 1.008 0.03 23.1568 10.2529 2.1589 -75.2079 -88.1118 51.3413 -2 -2 1 -0.0200253 0.0092329 -3.95664e-05 -3.03906 15.5632 -13.5792 
7340 459 3 1.008 0.03 19.7452 10.0046 2.665 -78.6195 157.552 51.8474 -2 3 1 0.0139142 -0.0140141 0.000898319 4.61321 9.00101 -9.49811 
7975 499 3 1.008 0.03 23.8734 9.33509 6.421 -74.4913 -89.0296 55.6033 -2 -2 1 -0.0106137 0.0111384 -0.0276389 -31.9984 22.4041 1.20802 
7977 499 3 1.008 0.03 22.2271 8.79501 4.6581 -76.1376 -89.5697 53.8405 -2 -2 1 0.00253994 0.0161271 0.00635335 -10.0727 -1.09878 4.27036 
2597 163 2 12.01 0.11 18.2805 16.6154 1.79943 18.2805 -81.7493 100.164 0 -2 2 0.00283082 -0.00509726 0.00536516 -34.081 23.2645 -17.953 