ITEM: TIMESTEP
2950000
ITEM: NUMBER OF ATOMS
10479
ITEM: BOX BOUNDS pp pp pp
4.0882558190751794e-01 4.9591174418091420e+01
4.0882558190751794e-01 4.9591174418091420e+01
4.0882558190751794e-01 4.9591174418091420e+01
ITEM: ATOMS id mol type mass q x y z xu yu zu ix iy iz vx vy vz fx fy fz 
10127 636 6 16 -0.53 7.16385 7.05908 6.2536 7.16385 7.05908 55.4359 0 0 1 -0.000973968 -0.00253922 0.0077813 -9.26745 -55.0648 29.8008 
2241 141 1 16 -0.4 5.84779 4.44344 4.55 5.84779 4.44344 53.7323 0 0 1 -0.000778348 -0.00382267 -0.000706542 -0.0403159 6.745 3.73086 
2243 141 2 12.01 0.14 4.60607 4.19972 5.23972 4.60607 4.19972 54.4221 0 0 1 0.00885752 0.00119167 -0.000841213 -24.0327 -49.0459 -28.6721 
2245 141 2 12.01 0.11 6.11728 3.49536 3.52652 6.11728 3.49536 52.7089 0 0 1 0.00461702 0.00498688 -0.00512653 -35.0927 8.89283 -20.5454 
10131 636 8 19 -0.16 7.47635 6.96506 3.27407 7.47635 6.96506 52.4564 0 0 1 -0.00555701 -0.000432653 0.00132448 -5.62342 2.47 0.893037 
2247 141 3 1.008 0.03 3.66873 4.37619 4.60861 3.66873 4.37619 53.791 0 0 1 -0.00448797 -0.00151738 -0.00203235 34.3986 1.66812 15.5441 
2248 141 3 1.008 0.03 4.52248 3.11088 5.53347 4.52248 3.11088 54.7158 0 0 1 0.014585 -0.0124952 -0.0115055 3.27057 26.2298 -12.1678 
2251 141 3 1.008 0.03 5.13876 3.32038 3.0226 5.13876 3.32038 52.205 0 0 1 -0.0128654 0.0142 -0.0116314 18.5116 -0.864668 -0.365156 
2252 141 3 1.008 0.03 6.86991 3.72952 2.75538 6.86991 3.72952 51.9377 0 0 1 -0.0220377 -0.00561193 -0.0313258 -4.65075 8.19221 10.2022 
2253 141 3 1.008 0.03 6.39762 2.5804 3.95381 6.39762 2.5804 53.1362 0 0 1 0.00564223 -0.0107417 0.0239605 7.95095 -24.9778 12.6047 
8261 517 2 12.01 0.11 2.80153 1.22495 2.44521 101.166 1.22495 -46.7371 2 0 -1 -0.0054224 0.000939044 -0.00168766 -18.337 -2.10049 33.8212 
8258 517 1 16 -0.4 1.8562 2.41937 6.57658 100.221 2.41937 -42.6058 2 0 -1 -0.00333539 -0.00088671 0.00973523 36.6888 13.0048 39.7443 
4826 302 3 1.008 0.03 1.21732 4.28437 1.62581 148.764 -44.898 -47.5565 3 -1 -1 0.0219262 0.00431094 -0.0258627 2.32021 7.55982 18.4434 
2244 141 2 12.01 0.14 4.58777 5.0223 6.47742 4.58777 5.0223 55.6598 0 0 1 -0.00268873 -0.00413838 0.00211549 3.66094 -18.9653 17.8528 
2249 141 3 1.008 0.03 4.7011 6.0037 6.10813 4.7011 6.0037 55.2905 0 0 1 0.00343593 -0.0130059 0.0435568 9.93073 26.2463 3.91257 
8268 517 3 1.008 0.03 2.98744 2.25615 2.18633 101.352 2.25615 -46.996 2 0 -1 0.0207849 -0.0184207 -0.00567864 5.03783 5.70945 -4.46917 
8257 517 1 16 -0.4 2.57246 1.03956 3.84607 100.937 1.03956 -45.3363 2 0 -1 0.0013196 0.00425789 0.00298654 24.0807 6.6191 -11.4345 
4818 302 1 16 -0.4 3.18082 4.77568 1.58471 150.728 -44.4067 -47.5976 3 -1 -1 0.0041014 -0.00430964 -0.00298992 -30.121 -29.0655 8.94898 
8259 517 2 12.01 0.14 1.65473 2.00019 4.31285 100.019 2.00019 -44.8695 2 0 -1 0.00615607 0.0027171 -0.00338429 -47.2704 18.5991 -0.204604 
8263 517 3 1.008 0.03 1.86688 3.05868 4.2257 100.232 3.05868 -44.9567 2 0 -1 -0.003899 0.0202161 0.0168375 15.1246 0.465688 -7.14813 
4820 302 2 12.01 0.14 1.82888 5.1815 1.83739 149.376 -44.0009 -47.345 3 -1 -1 0.00280862 -0.00224857 -0.00689793 10.913 -2.40673 -61.7833 
5850 366 3 1.008 0.03 0.843977 8.18061 4.22863 0.843977 8.18061 -44.9537 0 0 -1 -0.00557026 0.0135695 -0.00398286 2.81047 6.74706 5.76344 
10129 636 8 19 -0.16 5.53445 7.51421 3.76907 5.53445 7.51421 52.9514 0 0 1 0.00227401 -0.000881257 0.00793931 -58.3386 -19.3998 1.73348 
5849 366 3 1.008 0.03 2.53054 7.97727 4.86972 2.53054 7.97727 -44.3126 0 0 -1 -0.00043475 -0.0129298 0.0129771 -30.4775 18.3297 -7.76618 
8260 517 2 12.01 0.14 1.10361 1.72136 5.67601 99.4683 1.72136 -43.5063 2 0 -1 0.00207584 -0.00275958 -0.00324067 -0.265782 0.500169 1.17788 
962 61 1 16 -0.4 8.38504 4.5827 6.40358 8.38504 4.5827 55.5859 0 0 1 0.00219812 0.000145634 0.00301323 2.13554 10.7207 -8.38724 
10128 636 7 12.01 0.35 6.7259 7.89699 3.85297 6.7259 7.89699 53.0353 0 0 1 0.00359724 -0.0046505 0.000888871 72.9691 44.9303 -29.8962 
10125 636 5 32.06 1.02 7.28156 8.26871 5.543 7.28156 8.26871 54.7253 0 0 1 0.00084771 -0.0014444 0.00129068 8.53126 39.4742 -18.2299 
4825 302 3 1.008 0.03 1.85785 5.49926 2.84176 149.405 -43.6831 -46.3406 3 -1 -1 0.00485785 -0.00658329 0.00608134 -12.9257 6.43143 23.6896 
4831 302 3 1.008 0.03 3.91719 6.67829 2.3322 151.464 -42.5041 -46.8501 3 -1 -1 -0.0144673 -0.00895915 0.0276317 -19.6889 -6.30939 4.62978 
974 61 3 1.008 0.03 8.58497 5.81922 4.64504 8.58497 5.81922 53.8274 0 0 1 0.00694237 0.0132006 0.00497843 -3.42322 -18.58 6.16155 
8266 517 3 1.008 0.03 1.25358 0.698628 5.69928 99.6183 0.698628 -43.4831 2 0 -1 0.0162758 -0.00355492 -0.0079773 -3.72796 -39.3678 22.0358 
8269 517 3 1.008 0.03 3.51034 0.55658 2.02258 101.875 0.55658 -47.1598 2 0 -1 0.007727 -0.00683907 -0.0141067 17.7199 -8.99414 -3.90331 
4824 302 3 1.008 0.03 0.625162 6.96523 1.26309 148.172 -42.2171 -47.9193 3 -1 -1 0.00542533 0.0180505 -0.0242007 9.67403 0.35931 -0.298517 
8264 517 3 1.008 0.03 0.716834 1.89205 3.77956 99.0815 1.89205 -45.4028 2 0 -1 0.012043 0.0282374 0.00866241 3.19236 -1.63166 -15.3183 
4830 302 3 1.008 0.03 4.2703 6.0774 0.782512 151.817 -43.105 -48.3998 3 -1 -1 0.000227852 -0.00796899 0.00898012 5.11333 8.17779 -9.98632 
4819 302 2 12.01 0.14 1.34654 6.27781 0.798957 148.894 -42.9045 -48.3834 3 -1 -1 -0.00153418 -0.00590769 0.00260983 6.16829 -18.0251 17.6213 
8267 517 3 1.008 0.03 1.85801 0.918 2.06846 100.223 0.918 -47.1139 2 0 -1 -0.0310397 0.0147031 -0.0203061 -14.2554 -0.634143 -20.1983 
970 61 3 1.008 0.03 8.10659 2.46214 6.4806 8.10659 2.46214 55.6629 0 0 1 -0.00782667 -0.00443207 -0.032785 30.0144 42.3591 15.0161 
2250 141 3 1.008 0.03 3.59471 4.99897 6.90944 3.59471 4.99897 56.0918 0 0 1 0.0115787 -0.0126193 -0.00620433 -3.84501 -1.58024 6.43425 
4822 302 2 12.01 0.11 4.11195 5.75231 1.7911 151.659 -43.43 -47.3912 3 -1 -1 0.00392404 -0.00172603 0.00290016 12.8765 54.2581 -17.2746 
2242 141 1 16 -0.4 5.61222 4.53281 7.39915 5.61222 4.53281 56.5815 0 0 1 -0.00238713 -0.00173618 -0.00235152 2.98547 12.278 -1.64901 
4832 302 3 1.008 0.03 5.07757 5.51793 2.09108 152.625 -43.6644 -47.0913 3 -1 -1 -0.00497139 -0.00203114 -0.0109908 26.8452 -25.7858 10.3832 
9102 569 3 1.008 0.03 8.92208 5.45576 1.26886 -40.2603 54.6381 -47.9135 -1 1 -1 0.0131506 0.00121167 -0.0293829 -11.5495 6.59245 -2.31278 
976 61 3 1.008 0.03 8.69916 4.03136 4.41985 8.69916 4.03136 53.6022 0 0 1 0.00610882 -0.00938862 -0.0249681 -9.55799 -1.21757 -5.63336 
966 61 2 12.01 0.11 8.89718 4.85602 5.08894 8.89718 4.85602 54.2713 0 0 1 0.00311643 0.00111142 -0.00652285 19.7663 13.5648 -16.3257 
9090 569 1 16 -0.4 9.56 3.78382 2.09422 -39.6223 52.9662 -47.0881 -1 1 -1 0.00849409 -0.00100982 0.00125355 -11.9809 -6.91493 2.04771 
429 27 3 1.008 0.03 12.3813 3.90747 4.84926 12.3813 53.0898 54.0316 0 1 1 -0.00204768 -0.00190916 0.013283 -6.44968 1.99451 -15.8498 
975 61 3 1.008 0.03 9.9944 4.96433 5.00305 9.9944 4.96433 54.1854 0 0 1 0.0097943 0.00939653 -0.0214225 -8.85862 -5.19765 11.9553 
9097 569 3 1.008 0.03 11.5007 3.2288 2.21555 -37.6816 52.4112 -46.9668 -1 1 -1 0.020566 0.00581687 0.000759542 9.90951 1.78728 -0.0282245 
421 27 2 12.01 0.11 12.9592 4.05207 5.73299 12.9592 53.2344 54.9153 0 1 1 -1.8882e-05 -0.00241379 -0.00736698 -6.2414 16.3208 38.094 
9096 569 3 1.008 0.03 10.7757 1.82964 3.96344 -38.4066 51.012 -45.2189 -1 1 -1 0.00174172 0.00847686 0.0324408 -10.2193 9.99703 -6.41911 
9092 569 2 12.01 0.14 10.5378 2.7962 2.00081 -38.6446 51.9786 -47.1815 -1 1 -1 -0.00108264 0.00519239 0.00255109 -5.65659 -6.91725 17.385 
9091 569 2 12.01 0.14 10.2247 1.66719 3.01921 -38.9577 50.8495 -46.1631 -1 1 -1 0.00770333 0.00713853 0.0108655 24.3129 -7.41285 12.1268 
417 27 1 16 -0.4 12.4605 3.14748 6.70782 12.4605 52.3298 55.8902 0 1 1 0.00356958 -0.00307193 -0.000473964 -5.79832 -5.7617 -1.26544 
428 27 3 1.008 0.03 13.9842 3.83005 5.52207 13.9842 53.0124 54.7044 0 1 1 0.00127314 0.00321703 0.0171199 14.1685 0.120062 -2.99539 
427 27 3 1.008 0.03 12.8555 5.0989 6.10268 12.8555 54.2812 55.285 0 1 1 0.0382243 -0.0386967 0.0127446 0.409206 -19.3264 -12.0903 
7936 496 3 1.008 0.03 10.4375 5.65198 7.06318 10.4375 5.65198 56.2455 0 0 1 -0.0252211 -0.0223971 0.00489309 8.35056 9.73746 -2.56958 
9452 591 3 1.008 0.03 13.4016 8.01217 4.11414 13.4016 57.1945 53.2965 0 1 1 0.0197687 -0.00756897 -0.00212596 -1.69404 7.34874 12.0767 
9451 591 3 1.008 0.03 12.9864 6.44825 3.66844 12.9864 55.6306 52.8508 0 1 1 0.00646215 -0.00589541 0.0192293 6.20887 -7.90624 -5.422 
9445 591 2 12.01 0.11 13.8528 7.10164 3.76402 13.8528 56.284 52.9464 0 1 1 0.000457042 -0.00617051 -0.00376551 -1.07854 6.74788 33.695 
9441 591 1 16 -0.4 14.8719 6.65141 4.6929 14.8719 55.8338 53.8752 0 1 1 0.00784294 0.0108036 0.0072419 -30.0285 -7.74719 -28.2374 
9453 591 3 1.008 0.03 14.2452 7.46406 2.85001 14.2452 56.6464 52.0324 0 1 1 0.00697032 0.000395614 -0.0151087 5.22253 -8.31464 -26.5191 
9448 591 3 1.008 0.03 15.6416 8.28067 5.32655 15.6416 57.463 54.5089 0 1 1 0.00985381 0.0179959 0.00860207 7.22791 18.7762 7.81512 
9443 591 2 12.01 0.14 15.9798 7.49852 4.68428 15.9798 56.6809 53.8666 0 1 1 -0.00271917 -0.000840432 0.00027929 -3.9381 -20.394 22.7649 
9447 591 3 1.008 0.03 16.1531 7.89 3.68224 16.1531 57.0723 52.8646 0 1 1 -0.00228206 0.00868499 -0.00460105 12.9878 -3.60973 3.93648 
1101 69 3 1.008 0.03 16.3497 2.90792 4.49891 65.5321 2.90792 -93.8658 1 0 -2 0.00465413 0.00740185 -0.0231884 -1.7453 29.529 -12.7408 
473 30 3 1.008 0.03 14.4736 3.51419 1.20877 63.656 52.6965 50.3911 1 1 1 0.00373509 0.0257233 0.0032909 -4.33443 -8.22569 1.64851 
9095 569 3 1.008 0.03 9.16685 1.54636 3.29214 -40.0155 50.7287 -45.8902 -1 1 -1 -0.0124129 -0.0133082 -0.0211481 2.74624 1.79946 -9.24461 
9094 569 2 12.01 0.11 9.68252 4.72627 1.07042 -39.4998 53.9086 -48.1119 -1 1 -1 -0.00291201 -0.00539772 0.00522083 -0.0538611 26.6259 15.2843 
9098 569 3 1.008 0.03 10.5469 2.46586 0.981666 -38.6355 51.6482 -48.2007 -1 1 -1 0.00910813 -0.00562751 0.01381 0.685483 -13.0907 -10.268 
471 30 3 1.008 0.03 14.475 0.890805 0.92946 63.6574 50.0732 50.1118 1 1 1 0.000668164 -0.000199354 -0.0142302 3.14598 9.23547 -5.43606 
9103 569 3 1.008 0.03 10.5846 5.29584 1.23135 -38.5977 54.4782 -47.951 -1 1 -1 0.0233358 -0.00317244 -0.000584316 10.0857 0.799651 -5.34887 
468 30 2 12.01 0.14 15.2577 2.88754 0.776789 64.44 52.0699 49.9591 1 1 1 -0.00509416 0.00743859 0.00379556 -7.45682 -13.5526 -4.76528 
1100 69 3 1.008 0.03 15.8952 1.661 5.43566 65.0775 1.661 -92.929 1 0 -2 0.00473142 -0.0261715 0.0020037 -6.23382 -10.5145 6.66147 
1099 69 3 1.008 0.03 15.7723 1.44053 3.67576 64.9546 1.44053 -94.6889 1 0 -2 0.00750867 0.015538 0.0153796 13.4379 4.05034 11.2981 
9089 569 1 16 -0.4 10.8209 0.460157 2.56211 -38.3615 49.6425 -46.6202 -1 1 -1 0.00143491 -0.00056959 -0.00565983 -15.5188 14.7496 -8.272 
1093 69 2 12.01 0.11 16.3897 1.86087 4.50353 65.5721 1.86087 -93.8612 1 0 -2 0.00190575 0.0118951 0.00108197 2.23473 -24.8423 0.992276 
479 30 3 1.008 0.03 16.0997 5.25595 0.998199 65.282 54.4383 50.1805 1 1 1 0.0138124 -0.00921745 0.023197 -14.0181 9.71352 29.6099 
969 61 3 1.008 0.03 9.80922 3.05038 6.31414 9.80922 3.05038 55.4965 0 0 1 -0.00265892 -1.38745e-06 0.00809062 -11.7585 1.53797 18.1765 
474 30 3 1.008 0.03 15.896 2.56632 1.58907 65.0784 51.7487 50.7714 1 1 1 -0.0187015 0.00223812 -0.0163309 10.1067 5.3207 2.45792 
964 61 2 12.01 0.14 8.84129 3.31025 6.81496 8.84129 3.31025 55.9973 0 0 1 0.00494992 -0.00581444 0.00948192 -14.8908 -50.9856 -28.2758 
9307 582 3 1.008 0.03 13.3707 6.86495 7.06072 -35.8116 56.0473 154.608 -1 1 3 0.0342285 0.022337 -0.0169814 39.1262 0.193915 25.7002 
6502 407 2 12.01 0.11 22.1247 4.09456 0.684369 -27.0576 53.2769 99.0491 -1 1 2 0.000263258 -0.00105919 -0.000534479 3.54664 -27.943 -11.779 
4702 294 3 1.008 0.03 23.741 1.46556 5.45387 23.741 50.6479 5.45387 0 1 0 0.00667587 0.00653439 0.013686 -14.2135 -1.70134 11.5595 
9444 591 2 12.01 0.14 17.0888 6.60067 5.31774 17.0888 55.783 54.5001 0 1 1 0.00785 0.00132157 0.00400098 -30.4079 -22.2748 -25.7079 
9449 591 3 1.008 0.03 16.9314 5.55215 4.97489 16.9314 54.7345 54.1572 0 1 1 0.0143997 -0.0127962 -0.00345524 6.52827 17.0342 -3.4437 
9442 591 1 16 -0.4 17.0332 6.42504 6.71002 17.0332 55.6074 55.8924 0 1 1 0.00277411 -0.00313063 0.00387154 -8.60358 16.104 13.5683 
9446 591 2 12.01 0.11 17.6611 7.48768 7.40756 17.6611 56.67 56.5899 0 1 1 0.00232949 -0.00386784 0.00636602 -6.19566 -6.12542 -27.7438 
3216 201 3 1.008 0.03 23.0316 7.27416 7.00334 -75.3331 154.821 7.00334 -2 3 0 -0.00754683 -0.0123038 -0.0206806 6.24941 -13.1165 9.41747 
4698 294 3 1.008 0.03 24.8162 4.30396 5.67176 24.8162 53.4863 5.67176 0 1 0 0.00517766 -0.00763754 -0.0228813 -6.6769 8.26051 -5.57824 
1103 69 3 1.008 0.03 21.4353 1.57414 2.85734 70.6177 1.57414 -95.5074 1 0 -2 -0.00159228 -0.0106094 -0.00195633 12.5381 2.43555 -26.5605 
3212 201 3 1.008 0.03 21.6519 7.17003 2.1389 -76.7128 154.717 2.1389 -2 3 0 -0.0160176 0.00779839 -0.0269515 -26.3533 -4.52474 -11.4915 
9450 591 3 1.008 0.03 18.0152 6.91575 4.93067 18.0152 56.0981 54.113 0 1 1 0.0097231 -0.024353 0.0174715 27.7308 5.54843 -1.69927 
1095 69 3 1.008 0.03 18.4522 3.2269 5.11824 67.6345 3.2269 -93.2465 1 0 -2 -0.023606 0.0149572 -0.0040185 13.5583 -27.7547 10.4103 
3208 201 3 1.008 0.03 20.735 6.5565 4.20965 -77.6297 154.104 4.20965 -2 3 0 0.000455556 -0.0271621 0.00769414 3.39645 7.97893 0.464222 
3201 201 1 16 -0.4 22.7012 6.19933 3.79213 -75.6635 153.746 3.79213 -2 3 0 -0.0037847 0.00417466 0.00582305 -16.284 43.8632 -39.7247 
3210 201 3 1.008 0.03 21.3375 4.59856 5.15223 -77.0272 152.146 5.15223 -2 3 0 -0.0166429 -0.0136376 0.028446 -5.16056 -26.9743 0.691022 
3203 201 2 12.01 0.14 21.7021 6.56402 4.72736 -76.6626 154.111 4.72736 -2 3 0 -0.000299267 -0.0026759 0.00017556 -28.0389 -38.5349 16.3743 
3202 201 1 16 -0.4 22.6469 5.31146 6.58601 -75.7178 152.859 6.58601 -2 3 0 0.00604314 0.00484989 0.00187458 19.8987 -34.2267 -13.5346 
3209 201 3 1.008 0.03 20.6786 5.64279 6.46 -77.6861 153.19 6.46 -2 3 0 -0.0183751 -0.0181707 0.00811085 0.749374 -5.40406 -15.6173 
3204 201 2 12.01 0.14 21.5178 5.44312 5.76474 -76.8469 152.99 5.76474 -2 3 0 -0.000157172 0.00678195 -0.00363035 -4.08072 36.8707 7.83398 
3207 201 3 1.008 0.03 21.7807 7.47033 5.28714 -76.584 155.017 5.28714 -2 3 0 0.00933945 0.0225161 0.0102452 10.5846 16.5872 -8.7189 
1090 69 1 16 -0.4 20.8284 1.882 4.63312 70.0107 1.882 -93.7316 1 0 -2 -0.00261087 0.00097788 -0.00225697 4.0828 -3.45797 -12.7505 
3205 201 2 12.01 0.11 22.5536 7.17477 2.67493 -75.8111 154.722 2.67493 -2 3 0 -0.00563188 -0.000161017 -0.00127705 68.9907 -21.0656 43.6059 
4697 294 3 1.008 0.03 24.013 3.26122 6.93998 24.013 52.4436 6.93998 0 1 0 -0.0078603 -0.00977646 -0.0176593 36.7463 11.4942 -22.7388 
1094 69 2 12.01 0.11 20.6271 1.1691 3.39765 69.8094 1.1691 -94.9671 1 0 -2 -0.00117456 0.00218282 -0.000998334 -3.93582 -35.716 33.0747 
1102 69 3 1.008 0.03 19.6687 1.35576 2.91875 68.851 1.35576 -95.4459 1 0 -2 0.0102946 -0.00845508 -0.0226604 1.40128 10.4483 2.34505 
6511 407 3 1.008 0.03 22.0426 4.58857 1.64521 -27.1397 53.7709 100.01 -1 1 2 -0.00784952 0.00376002 -0.0139276 -8.5567 1.47387 2.80315 
9454 591 3 1.008 0.03 17.426 8.46631 6.96193 17.426 57.6487 56.1443 0 1 1 0.0404822 0.0122687 0.0281565 -1.73835 -4.65228 9.84759 
10114 635 8 19 -0.16 20.188 8.43813 6.63647 118.553 57.6205 6.63647 2 1 0 0.00150268 -0.00124134 -0.00265031 2.78065 -10.3801 -5.68321 
1098 69 3 1.008 0.03 19.7829 0.433126 5.67122 68.9653 0.433126 -92.6935 1 0 -2 0.012594 -0.00799952 -0.00878718 10.7753 20.3782 3.95234 
3211 201 3 1.008 0.03 23.4059 7.02425 1.9718 -74.9588 154.571 1.9718 -2 3 0 0.00141949 0.00914974 0.00807428 -16.7321 0.471819 8.13246 
1096 69 3 1.008 0.03 18.1945 2.1559 6.54562 67.3769 2.1559 -91.8191 1 0 -2 -0.0087174 0.00610457 -0.00729413 -11.7356 -0.670707 -39.9969 
4704 294 3 1.008 0.03 24.9382 1.00857 4.36485 24.9382 50.1909 4.36485 0 1 0 -0.0031785 0.00560265 -0.0144728 -4.22033 12.1458 -9.47797 
1092 69 2 12.01 0.14 19.9432 1.544 5.66282 69.1256 1.544 -92.7019 1 0 -2 -0.00132465 -0.00120133 -0.00169311 -63.4338 -44.2458 -64.1965 
480 30 3 1.008 0.03 17.4993 4.13786 0.89365 66.6817 53.3202 50.076 1 1 1 -0.00795535 -0.00743791 -0.00770725 8.59899 9.00047 4.62968 
5648 353 3 1.008 0.03 24.6836 7.36605 4.62561 -24.4987 56.5484 102.99 -1 1 2 -0.00496864 0.00610797 0.00475221 18.1666 18.6783 0.435457 
4692 294 2 12.01 0.14 24.9941 3.53382 6.39989 24.9941 52.7162 6.39989 0 1 0 -0.00103702 0.00256893 0.0036964 -25.481 -42.9709 6.7337 
1097 69 3 1.008 0.03 20.3062 1.8014 6.56653 69.4886 1.8014 -91.7982 1 0 -2 -0.00303693 0.00303911 0.00845275 21.6021 16.9385 46.4782 
3213 201 3 1.008 0.03 22.7188 8.1687 3.11816 -75.6459 155.716 3.11816 -2 3 0 -0.0149074 -0.00198711 0.00629276 -4.5963 -2.33551 -8.14941 
4694 294 2 12.01 0.11 24.5383 1.88565 4.88366 24.5383 51.068 4.88366 0 1 0 0.00338299 0.00779557 -0.00829822 19.771 -16.1178 -6.2115 
6498 407 1 16 -0.4 22.6383 2.73989 0.915001 -26.5441 51.9222 99.2797 -1 1 2 -0.00042547 0.000288624 0.00190033 -10.6084 37.4878 -2.45123 
1089 69 1 16 -0.4 17.7452 1.39734 4.57621 66.9275 1.39734 -93.7885 1 0 -2 -0.000620338 0.00310808 0.00521498 -29.5678 -18.7311 -19.6004 
1091 69 2 12.01 0.14 18.5025 2.14239 5.4512 67.6849 2.14239 -92.9135 1 0 -2 -0.00226597 -0.00252709 0.000191441 37.7155 48.3702 54.9606 
5280 330 3 1.008 0.03 17.3901 7.8003 1.00878 66.5724 -41.3821 -48.1736 1 -1 -1 -0.00209716 -0.00306658 0.00838529 -9.19354 -6.59013 3.64996 
4703 294 3 1.008 0.03 24.1112 2.60536 4.17717 24.1112 51.7877 4.17717 0 1 0 -0.0492212 -0.0238695 0.0013042 4.55232 -0.953527 -0.619187 
9456 591 3 1.008 0.03 18.6884 7.25807 7.17837 18.6884 56.4404 56.3607 0 1 1 -0.023338 0.0140642 -0.00712934 6.28967 1.66627 14.9237 
9871 619 6 16 -0.53 5.15757 11.1164 0.874114 5.15757 60.2988 0.874114 0 1 0 -0.00167636 -0.00371299 -0.00036033 10.9769 -13.152 -0.369229 
5847 366 3 1.008 0.03 0.799044 8.65232 6.57599 0.799044 8.65232 -42.6064 0 0 -1 -0.00276704 0.0271289 -0.0123344 -5.98951 -2.84672 8.22042 
10130 636 8 19 -0.16 6.84603 9.00206 3.07666 6.84603 9.00206 52.259 0 0 1 0.00391782 -0.000102817 -0.000310048 -5.97271 -25.6704 13.6004 
10126 636 6 16 -0.53 6.39568 9.29251 5.96644 6.39568 9.29251 55.1488 0 0 1 0.00104597 -0.000206796 0.00694145 -16.6009 16.8085 4.18615 
3657 229 3 1.008 0.03 3.57138 16.0124 7.42523 3.57138 65.1947 7.42523 0 1 0 -0.0139497 -0.00993223 -0.0100209 5.88497 8.45321 3.75418 
9867 619 8 19 -0.16 0.603894 12.424 1.62168 0.603894 61.6064 1.62168 0 1 0 0.0047296 -0.00127261 -0.00189422 -15.4377 8.29152 20.5956 
9862 619 4 14.01 -0.66 3.19812 12.6303 0.704161 3.19812 61.8127 0.704161 0 1 0 0.011691 -0.00300859 0.00199787 14.8473 -19.035 -1.68492 
5854 366 3 1.008 0.03 2.24484 8.65039 2.00502 2.24484 8.65039 -47.1773 0 0 -1 0.002514 -0.0276113 -0.0299703 -11.9106 18.9542 10.0684 
5841 366 1 16 -0.4 2.56884 9.7801 6.61382 2.56884 9.7801 -42.5685 0 0 -1 -0.00422756 0.00194462 0.000201988 -5.30322 -5.8118 3.43109 
5855 366 3 1.008 0.03 0.699613 9.51087 2.3352 0.699613 9.51087 -46.8471 0 0 -1 -0.0294083 0.025543 0.00999691 3.92764 1.20491 1.7203 
9872 619 6 16 -0.53 5.55791 13.5348 0.591139 5.55791 62.7172 0.591139 0 1 0 -0.005344 -0.000175182 -0.00401001 11.9149 11.37 9.54539 
5843 366 2 12.01 0.14 1.34969 9.35968 5.97908 1.34969 9.35968 -43.2033 0 0 -1 0.000796306 0.00819038 -0.00441477 -1.1323 30.7075 -3.43141 
3656 229 3 1.008 0.03 3.32527 13.5632 7.05349 3.32527 62.7456 7.05349 0 1 0 0.0272374 0.0289628 -0.0200255 5.5125 -3.86549 -12.5568 
5844 366 2 12.01 0.14 1.68295 8.72205 4.68522 1.68295 8.72205 -44.4971 0 0 -1 -0.00710358 0.00763295 -0.00217592 52.098 -35.6043 -21.923 
3783 237 3 1.008 0.03 5.36622 16.5053 1.27511 5.36622 65.6876 1.27511 0 1 0 0.00812214 -0.0028777 0.00773485 -3.96149 -8.11632 1.97556 
9863 619 5 32.06 1.02 2.42503 13.9535 0.688721 2.42503 63.1358 0.688721 0 1 0 -0.00120372 0.000832682 -0.00144468 15.232 13.0696 -5.10884 
3780 237 2 12.01 0.14 6.04703 15.998 3.3453 6.04703 65.1803 3.3453 0 1 0 -0.00666752 -0.000999385 -0.00316647 -2.08853 4.98935 -38.6559 
3791 237 3 1.008 0.03 6.97797 13.9337 4.24113 6.97797 63.1161 4.24113 0 1 0 -0.00426167 -0.0332559 0.0125091 13.3504 9.96238 9.12843 
3782 237 2 12.01 0.11 5.93335 13.805 4.05581 5.93335 62.9873 4.05581 0 1 0 -0.00163536 0.00190126 0.0089565 -0.0498213 -62.9549 -25.6701 
3659 229 3 1.008 0.03 1.53635 12.6805 4.74495 1.53635 61.8629 4.74495 0 1 0 -0.015591 0.000876486 -0.0132149 -4.50982 0.723368 4.54156 
3661 229 3 1.008 0.03 2.9074 11.8534 5.41629 2.9074 61.0358 5.41629 0 1 0 0.0118874 0.0220402 -0.0234869 8.82324 6.81352 -8.90967 
3651 229 2 12.01 0.14 3.0815 14.3154 6.29156 3.0815 63.4977 6.29156 0 1 0 0.00802611 -0.00551862 0.0047442 -41.9072 28.8498 20.2629 
3649 229 1 16 -0.4 3.1385 13.9493 4.9289 3.1385 63.1317 4.9289 0 1 0 0.0018817 -0.00467982 -0.00369343 3.84113 -2.02472 -9.74033 
3660 229 3 1.008 0.03 2.79227 12.3828 3.66673 2.79227 61.5651 3.66673 0 1 0 -0.0119886 -0.00562191 0.00801823 8.95304 -11.2404 -4.5662 
3653 229 2 12.01 0.11 2.61862 12.6352 4.69994 2.61862 61.8175 4.69994 0 1 0 0.00388611 0.00173177 -0.00829352 -16.7683 12.2031 6.19267 
3792 237 3 1.008 0.03 5.4452 13.3306 4.92131 5.4452 62.5129 4.92131 0 1 0 -0.0138257 -0.0190993 0.0116975 7.74535 5.16416 -4.26568 
10466 677 9 24.305 2 3.37541 15.4593 3.72853 3.37541 64.6416 3.72853 0 1 0 -0.00345993 -0.00416934 -0.00657876 -0.00775724 7.9804 -4.55245 
3790 237 3 1.008 0.03 5.95861 13.0114 3.23798 5.95861 62.1938 3.23798 0 1 0 0.00601031 -0.00551909 0.0213427 -4.41609 22.3418 26.0568 
3778 237 1 16 -0.4 5.2211 14.8832 3.53692 5.2211 64.0655 3.53692 0 1 0 0.00202328 0.00602778 -0.00219444 -28.9061 14.4898 8.03221 
9864 619 6 16 -0.53 2.59132 14.6678 1.95167 2.59132 63.8502 1.95167 0 1 0 -0.0039171 -0.00376674 0.000897822 7.9605 -1.60438 -4.06153 
3786 237 3 1.008 0.03 6.28401 16.5357 4.25139 6.28401 65.7181 4.25139 0 1 0 -0.0125772 0.00306881 0.00370085 -1.53543 -2.78453 6.03584 
9866 619 7 12.01 0.35 0.710992 13.3563 0.702458 0.710992 62.5386 0.702458 0 1 0 3.15856e-05 0.0043147 -0.00323349 21.1166 -17.0098 -2.70083 
3785 237 3 1.008 0.03 6.95635 15.6675 2.85904 6.95635 64.8498 2.85904 0 1 0 0.0133792 0.00722462 0.00179657 9.67309 2.97431 1.1617 
3652 229 2 12.01 0.14 3.91257 15.5845 6.49107 3.91257 64.7668 6.49107 0 1 0 0.00435899 0.0019615 -0.00224575 30.8668 -12.1171 -2.31764 
3650 229 1 16 -0.4 3.88822 16.5596 5.43106 3.88822 65.742 5.43106 0 1 0 -0.00024511 0.00191672 0.0132206 -5.2955 0.181358 -8.62307 
5856 366 3 1.008 0.03 2.10857 10.3535 1.7415 2.10857 10.3535 -47.4408 0 0 -1 0.00107047 0.0221393 0.00753869 6.62618 15.2666 0.395724 
9857 618 6 16 -0.53 1.47122 16.1091 3.95672 50.6536 65.2915 3.95672 1 1 0 -0.000842556 0.00787652 -0.00256605 -19.5769 -1.50861 15.4574 
5846 366 2 12.01 0.11 1.79012 9.59065 2.42206 1.79012 9.59065 -46.7603 0 0 -1 -0.000480703 -0.00103877 0.00303471 12.9152 -40.6238 21.7507 
5842 366 1 16 -0.4 2.22903 9.72106 3.81908 2.22903 9.72106 -45.3633 0 0 -1 -0.000709922 -0.00596916 -0.00400863 -19.123 3.63423 -32.1459 
5848 366 3 1.008 0.03 0.728242 10.2378 5.68325 0.728242 10.2378 -43.4991 0 0 -1 0.0295513 0.00947224 -0.0123108 3.60052 -13.2959 15.2343 
848 53 3 1.008 0.03 8.09354 12.5529 1.96374 57.2759 61.7352 -47.2186 1 1 -1 -0.0120579 -0.00452105 -0.00345471 7.29671 12.1421 -0.879244 
3658 229 3 1.008 0.03 4.96615 15.2143 6.55438 4.96615 64.3967 6.55438 0 1 0 -0.00750416 0.00173924 -0.0208235 -15.2908 13.0418 7.86026 
10122 636 8 19 -0.16 7.37779 11.4394 4.57067 7.37779 11.4394 53.753 0 0 1 -0.00352971 0.000492984 0.000496722 21.2142 -12.1119 -4.91768 
4482 281 1 16 -0.4 8.14673 15.9802 6.51519 106.511 -33.2021 154.062 2 -1 3 -0.00425234 -0.00379374 -0.00393681 -16.1782 28.7007 -4.281 
4496 281 3 1.008 0.03 8.22172 13.9809 6.25751 106.586 -35.2014 153.805 2 -1 3 0.00966921 -0.0231044 0.0239376 6.24144 -9.2687 -7.3585 
4486 281 2 12.01 0.11 8.45096 14.7108 7.01284 106.816 -34.4716 154.56 2 -1 3 -0.0057788 -0.0012501 0.0016726 1.95473 -15.5761 14.334 
3655 229 3 1.008 0.03 2.03829 14.6352 6.57077 2.03829 63.8176 6.57077 0 1 0 0.0160633 -0.0185739 -0.00882334 20.0259 -11.5771 -14.677 
7312 457 3 1.008 0.03 13.3816 10.1468 7.2077 13.3816 108.512 7.2077 0 2 0 -0.00343734 0.00384727 0.0178067 -4.85953 8.69722 -5.14127 
10123 636 8 19 -0.16 8.78376 10.558 3.17983 8.78376 10.558 52.3622 0 0 1 -0.00393498 0.000240057 0.00180463 -1.20397 2.38796 -1.65492 
4673 293 1 16 -0.4 12.753 8.94469 1.14167 -36.4294 58.127 50.324 -1 1 1 -0.00498078 0.00675051 0.00483402 20.6907 42.295 1.74 
10117 636 4 14.01 -0.66 8.77801 8.67212 5.33763 8.77801 8.67212 54.52 0 0 1 0.000551402 -0.00424312 0.00133421 2.58745 12.062 -2.27317 
10119 636 6 16 -0.53 8.89975 10.5758 6.95196 8.89975 10.5758 56.1343 0 0 1 0.000974411 0.0009044 -0.0021978 10.4525 14.891 1.45147 
4682 293 3 1.008 0.03 12.7388 10.2242 3.24949 -36.4435 59.4065 52.4318 -1 1 1 0.0286352 0.00794554 -0.0246855 13.7254 7.52325 -4.87515 
847 53 3 1.008 0.03 9.57086 11.8126 1.3564 58.7532 60.995 -47.8259 1 1 -1 -0.0214622 0.0204379 -0.00385577 -15.7952 27.4113 -12.0525 
4674 293 1 16 -0.4 14.7464 10.7825 3.09374 -34.4359 59.9648 52.2761 -1 1 1 0.00151943 0.0077369 0.00202673 22.9325 -0.41365 14.2541 
712 45 3 1.008 0.03 12.9483 13.8195 0.980133 12.9483 -84.5452 0.980133 0 -2 0 -0.0349313 0.0122379 0.00665792 18.8804 7.73604 -5.13386 
4484 281 2 12.01 0.14 8.96018 16.4597 5.43234 107.325 -32.7226 152.979 2 -1 3 -0.00547335 -0.00144488 0.00381945 7.63633 42.4215 66.5531 
841 53 3 1.008 0.03 10.9439 13.6569 2.32937 60.1263 62.8393 -46.853 1 1 -1 0.00829891 0.0240669 0.0155952 16.4807 2.76865 -16.0177 
836 53 2 12.01 0.14 10.1443 14.3456 2.09828 59.3266 63.5279 -47.0841 1 1 -1 -0.000434333 -0.00408826 -0.00428394 1.87735 18.7548 37.8174 
835 53 2 12.01 0.14 10.5037 15.844 1.88246 59.6861 65.0263 -47.2999 1 1 -1 -0.0046669 0.00430776 -0.00430039 9.8042 -31.6917 65.137 
4676 293 2 12.01 0.14 13.447 10.8047 2.61609 -35.7354 59.987 51.7984 -1 1 1 -0.000134912 2.96525e-05 -0.00811785 -36.2729 -15.4934 38.9745 
4678 293 2 12.01 0.11 14.8772 11.2782 4.43072 -34.3051 60.4605 53.6131 -1 1 1 -0.00153095 -0.000719501 0.00551293 -8.02483 -18.1537 -14.3448 
839 53 3 1.008 0.03 10.8009 15.8987 0.889519 59.9833 65.081 -48.2928 1 1 -1 0.00727505 -0.0157749 0.0241223 23.6947 12.8915 -27.6719 
10118 636 5 32.06 1.02 9.40664 10.0836 5.69587 9.40664 10.0836 54.8782 0 0 1 -0.00383076 0.00251631 0.0016874 -0.254818 -33.6388 -4.26912 
10121 636 7 12.01 0.35 8.67637 11.1295 4.36864 8.67637 11.1295 53.551 0 0 1 0.00695034 0.00030887 0.00650111 -8.72118 23.084 17.2178 
10120 636 6 16 -0.53 10.8426 10.1197 5.45446 10.8426 10.1197 54.6368 0 0 1 -0.000617889 -0.00164019 0.000721679 -16.0939 2.89619 2.48987 
4957 310 3 1.008 0.03 15.2932 14.3833 5.73303 64.4756 14.3833 5.73303 1 0 0 -0.0152109 -0.02053 -0.00137933 -0.607827 -3.42664 2.84539 
842 53 3 1.008 0.03 9.66983 14.2488 3.09636 58.8522 63.4311 -46.086 1 1 -1 -0.00255067 0.00715102 0.00984979 -12.3575 4.68167 -20.0319 
10124 636 8 19 -0.16 9.30666 12.3056 4.31734 9.30666 12.3056 53.4997 0 0 1 -0.00132401 0.00289757 0.00522 -3.91776 -9.0954 -5.97548 
4949 310 2 12.01 0.11 16.2132 14.1516 6.27936 65.3955 14.1516 6.27936 1 0 0 0.000220442 -0.00638333 -0.00438758 -2.75867 -59.214 -36.8705 
4686 293 3 1.008 0.03 15.9059 10.9831 4.75109 -33.2764 60.1655 53.9334 -1 1 1 -0.0344646 -0.00504503 -0.0259332 -15.3804 24.2678 -0.012454 
4681 293 3 1.008 0.03 13.0785 11.7932 2.6495 -36.1039 60.9755 51.8318 -1 1 1 0.00616653 0.00143734 -0.00333277 -5.31068 24.0757 -0.316759 
833 53 1 16 -0.4 9.29719 16.5286 2.08515 58.4795 65.711 -47.0972 1 1 -1 -0.0076567 0.00255451 -0.00384069 3.45212 8.42529 -1.04915 
4688 293 3 1.008 0.03 14.2194 10.694 5.06389 -34.963 59.8764 54.2462 -1 1 1 0.0258678 0.0387246 0.00386562 -2.05753 -1.90654 3.4514 
4687 293 3 1.008 0.03 14.5036 12.3288 4.50593 -34.6788 61.5112 53.6883 -1 1 1 0.0215278 0.000661718 0.0126089 21.1705 -12.6966 2.49109 
840 53 3 1.008 0.03 11.2866 16.1906 2.64869 60.469 65.373 -46.5337 1 1 -1 0.00271553 0.0320711 -0.00449145 -22.3402 -11.3075 -31.3858 
714 45 3 1.008 0.03 14.9175 15.3999 1.40669 14.9175 -82.9648 1.40669 0 -2 0 0.018354 0.0247256 -0.00440434 1.0149 9.42865 -8.5193 
834 53 1 16 -0.4 9.40922 13.9676 0.965392 58.5916 63.1499 -48.217 1 1 -1 -0.00163104 0.00167191 -0.0107214 -18.8791 -41.1457 7.47111 
708 45 2 12.01 0.14 14.9497 14.6483 0.618354 14.9497 -83.7164 0.618354 0 -2 0 -0.00693218 0.00238696 -0.00468129 48.5185 -21.5762 11.5351 
838 53 2 12.01 0.11 8.82303 12.6447 1.14615 58.0054 61.827 -48.0362 1 1 -1 0.000827778 -0.00333252 0.00146669 13.2431 -13.934 10.416 
710 45 2 12.01 0.11 16.3326 12.5018 0.828743 16.3326 -85.8629 0.828743 0 -2 0 0.00500095 -0.00333319 -0.000819646 20.9849 8.41351 27.4174 
4952 310 3 1.008 0.03 16.2527 13.8253 3.81928 65.4351 13.8253 3.81928 1 0 0 -0.00457852 0.00869598 0.0153128 11.2825 5.28669 13.5186 
706 45 1 16 -0.4 15.5448 13.5531 1.35244 15.5448 -84.8116 1.35244 0 -2 0 -0.0053027 0.000374547 0.000905858 -15.6268 9.28722 32.6173 
719 45 3 1.008 0.03 16.5745 11.6697 1.51623 16.5745 -86.695 1.51623 0 -2 0 -0.0154524 -0.00230567 0.0142161 -7.2628 17.2568 4.43905 
4956 310 3 1.008 0.03 16.0005 14.5832 7.19651 65.1828 14.5832 7.19651 1 0 0 0.0177199 0.00927103 -0.00047909 5.93819 16.6522 33.6251 
5279 330 3 1.008 0.03 16.1708 8.91903 1.79391 65.3531 -40.2633 -47.3884 1 -1 -1 -0.0115369 0.0117061 0.00491342 -1.77422 -8.52137 14.8838 
4489 281 3 1.008 0.03 8.75142 15.9846 4.55836 107.116 -33.1978 152.105 2 -1 3 0.00242306 -0.0204682 -0.0178366 -9.5493 -21.827 -42.9335 
4490 281 3 1.008 0.03 9.94662 16.1849 5.75969 108.311 -32.9975 153.307 2 -1 3 0.00697209 -0.00760639 -0.00863153 14.3449 -0.606257 -8.18295 
4675 293 2 12.01 0.14 13.3255 10.3033 1.248 -35.8568 59.4857 50.4303 -1 1 1 -0.004252 0.0132283 0.00206742 -56.1379 -58.5935 -24.2121 
4955 310 3 1.008 0.03 16.2178 12.9689 6.3995 65.4001 12.9689 6.3995 1 0 0 -0.0207563 0.0184833 0.00818437 7.98053 65.6487 -6.01034 
4680 293 3 1.008 0.03 12.6392 10.9115 0.669937 -36.5431 60.0938 49.8523 -1 1 1 0.0160094 -0.0121727 -0.0169213 3.13704 8.82517 -1.52839 