ITEM: TIMESTEP
4850000
ITEM: NUMBER OF ATOMS
10479
ITEM: BOX BOUNDS pp pp pp
4.0882558190751794e-01 4.9591174418091420e+01
4.0882558190751794e-01 4.9591174418091420e+01
4.0882558190751794e-01 4.9591174418091420e+01
ITEM: ATOMS id mol type mass q x y z xu yu zu ix iy iz vx vy vz fx fy fz 
8463 529 3 1.008 0.03 7.00846 2.37059 5.63349 56.1908 51.5529 103.998 1 1 2 0.0131083 0.00573036 0.00132969 -5.93475 7.63692 15.4811 
3967 248 3 1.008 0.03 6.07198 7.91549 5.66494 55.2543 7.91549 -43.5174 1 0 -1 0.0163381 0.0232168 -0.0128781 2.67183 34.3973 -7.16747 
2056 129 3 1.008 0.03 1.12434 7.27381 3.99925 50.3067 56.4562 53.1816 1 1 1 -0.0114363 0.00862879 -0.00272379 12.4924 -5.23159 -16.7088 
9222 577 2 12.01 0.11 1.43862 2.62803 2.81339 50.621 -46.5543 51.9957 1 -1 1 0.00741506 -0.00406417 -0.00705563 -20.8078 -47.1761 -40.199 
4759 298 3 1.008 0.03 8.08648 5.45644 7.40565 57.2688 5.45644 7.40565 1 0 0 -0.0143243 -0.000807891 0.000914593 11.5891 0.954639 2.47255 
912 57 3 1.008 0.03 3.4562 3.09816 0.52889 52.6385 -46.0842 -48.6535 1 -1 -1 -0.00364466 0.00200922 -0.0370844 -12.1769 -12.7306 -2.72273 
9225 577 3 1.008 0.03 1.70138 0.795251 4.69652 50.8837 -48.3871 53.8789 1 -1 1 0.0189557 0.00975109 0.0129879 21.2917 -5.31573 -21.6516 
911 57 3 1.008 0.03 4.32772 4.38482 1.26384 53.5101 -44.7975 -47.9185 1 -1 -1 -0.0195909 0.0304462 0.022201 4.68697 -6.21441 -8.31737 
6688 418 3 1.008 0.03 6.72266 3.24652 2.0008 105.087 -95.1182 51.1832 2 -2 1 0.00345397 0.0106589 0.0155978 10.6595 15.3734 9.8346 
6678 418 2 12.01 0.11 7.19599 4.11807 2.52484 105.561 -94.2466 51.7072 2 -2 1 -0.0001586 0.00201524 -0.00137875 -26.4983 -5.97094 -45.987 
6687 418 3 1.008 0.03 7.22702 4.99993 1.85591 105.592 -93.3648 51.0383 2 -2 1 0.00309225 -0.0151167 -0.00410209 4.83369 -10.3583 6.75727 
6686 418 3 1.008 0.03 6.58695 4.39697 3.30759 104.952 -93.9677 52.4899 2 -2 1 -0.00458224 -0.0115434 -0.00712647 -32.1639 10.4838 24.9918 
3958 248 2 12.01 0.11 6.07535 6.89823 5.87082 55.2577 6.89823 -43.3115 1 0 -1 0.00199192 0.00681199 -0.00138267 -16.0338 -54.2221 -24.0924 
9230 577 3 1.008 0.03 2.2261 3.27696 3.0975 51.4084 -45.9054 52.2799 1 -1 1 0.00677798 -0.0365896 -0.0084095 16.1846 13.3774 5.27344 
3968 248 3 1.008 0.03 6.15517 6.72929 6.90024 55.3375 6.72929 -42.2821 1 0 -1 0.000965335 -0.0134636 -0.0141609 -7.79027 0.298515 31.0036 
3966 248 3 1.008 0.03 6.97738 6.43265 5.52182 56.1597 6.43265 -43.6605 1 0 -1 -0.0015481 0.00231807 0.0011364 10.6555 3.37499 -10.4608 
6674 418 1 16 -0.4 8.33373 3.81307 3.19824 106.698 -94.5516 52.3806 2 -2 1 -0.00410497 0.00470714 -0.0010252 31.7109 -13.1633 2.70422 
3956 248 2 12.01 0.14 3.75051 6.69919 5.59295 52.9329 6.69919 -43.5894 1 0 -1 -0.00210723 0.000118702 0.00326121 6.5406 16.4226 7.75632 
3961 248 3 1.008 0.03 3.11035 6.53033 4.76571 52.2927 6.53033 -44.4166 1 0 -1 -0.0166565 -0.0361123 -0.000704964 -14.8139 -9.2938 -12.2281 
3954 248 1 16 -0.4 4.98384 6.17019 5.24696 54.1662 6.17019 -43.9354 1 0 -1 -0.00529992 -0.0023191 0.00341336 32.1407 4.84158 9.48943 
9232 577 3 1.008 0.03 0.658384 2.60194 3.55001 49.8407 -46.5804 52.7324 1 -1 1 0.0115203 0.00257937 -0.0296167 -6.83278 7.78417 10.2805 
9231 577 3 1.008 0.03 0.971142 2.95223 1.85517 50.1535 -46.2301 51.0375 1 -1 1 0.000754483 -0.0216628 0.00917619 11.5907 5.36927 19.9793 
8464 529 3 1.008 0.03 5.5906 1.98058 4.8652 54.7729 51.1629 103.23 1 1 2 -0.011171 0.0249741 -0.000211053 -2.2696 18.0351 23.1607 
9218 577 1 16 -0.4 1.8371 1.24302 2.59205 51.0194 -47.9393 51.7744 1 -1 1 -0.00233551 0.00210666 0.00252009 4.60445 17.9153 35.9141 
905 57 3 1.008 0.03 1.83042 5.26655 0.987357 51.0128 -43.9158 -48.195 1 -1 -1 -0.00628884 -0.0136647 -0.00702787 -5.05918 4.98004 3.05636 
8462 529 3 1.008 0.03 5.56899 3.48357 5.88744 54.7513 52.6659 104.252 1 1 2 -0.0191827 -0.00333935 -0.00915376 4.26889 -11.969 3.61888 
9226 577 3 1.008 0.03 3.27661 1.37964 3.95883 52.459 -47.8027 53.1412 1 -1 1 -0.00431119 0.0113818 0.00379503 -0.270441 -8.58797 10.8611 
612 39 2 12.01 0.14 8.44354 8.4361 3.16737 57.6259 106.801 101.532 1 2 2 0.00535632 -0.00690313 0.0051932 20.9267 -4.35779 -4.22045 
618 39 3 1.008 0.03 8.53573 7.52036 3.80794 57.7181 105.885 102.173 1 2 2 0.00970991 0.00129211 0.00654921 -2.37547 13.1981 -17.228 
3955 248 2 12.01 0.14 3.19801 6.16796 6.89341 52.3804 6.16796 -42.2889 1 0 -1 -0.00513021 -0.00653435 0.00172283 -7.60661 -11.0979 -10.9591 
6780 424 3 1.008 0.03 2.505 1.71723 6.86274 2.505 50.8996 -42.3196 0 1 -1 -0.00637131 -0.00211703 0.0124435 3.10325 -25.7248 -12.2608 
619 39 3 1.008 0.03 4.41362 7.89038 2.74566 53.596 106.255 101.11 1 2 2 -0.0150422 0.0436328 -0.0265543 -9.40667 -34.1052 -2.9715 
611 39 2 12.01 0.14 7.09315 8.5861 2.48768 56.2755 106.951 100.852 1 2 2 0.00729528 -0.00638911 0.00584459 -4.95497 -23.3997 -8.17259 
3959 248 3 1.008 0.03 3.38648 5.1109 7.06767 52.5688 5.1109 -42.1147 1 0 -1 0.0163959 0.00853177 0.0027297 3.15149 0.0654407 -8.74301 
7116 445 3 1.008 0.03 7.13795 0.580729 2.36817 56.3203 -146.966 -145.179 1 -3 -3 0.0144245 -0.0214792 0.022096 22.8275 -12.8047 15.9473 
8450 529 1 16 -0.4 5.43338 1.53795 6.90132 54.6157 50.7203 105.266 1 1 2 -0.00179881 0.00333861 -0.00583166 27.1341 16.051 -22.2176 
615 39 3 1.008 0.03 6.83617 7.57244 2.18976 56.0185 105.937 100.554 1 2 2 0.0117084 -0.0331035 -0.0031204 1.01254 -1.04438 -8.66188 
3960 248 3 1.008 0.03 2.13659 6.31402 6.74553 51.3189 6.31402 -42.4368 1 0 -1 -0.0146331 0.012488 -0.0316919 -8.96134 -2.56805 13.6482 
9220 577 2 12.01 0.14 2.41998 0.707718 3.82112 51.6023 -48.4746 53.0035 1 -1 1 -0.00105448 -0.00162797 -0.00133004 -21.6065 20.3155 -23.2475 
8454 529 2 12.01 0.11 5.92695 2.43511 5.84342 55.1093 51.6175 104.208 1 1 2 0.00261243 0.00400244 0.00460908 -11.6471 -35.6553 -24.0527 
3962 248 3 1.008 0.03 3.80403 7.774 5.67857 52.9864 7.774 -43.5038 1 0 -1 -0.00491589 -0.010362 -0.0135249 -2.5233 4.39237 -6.56718 
4761 298 3 1.008 0.03 8.41056 2.727 7.34507 57.5929 2.727 7.34507 1 0 0 -0.0381709 -0.0139409 -0.0101466 -1.92926 6.23252 2.94289 
6781 424 3 1.008 0.03 2.43109 3.27464 7.41098 2.43109 52.457 -41.7714 0 1 -1 -0.0115428 -0.00849108 0.0184143 -15.017 -16.3184 13.6813 
4755 298 2 12.01 0.14 8.99839 4.87665 7.19174 58.1807 4.87665 7.19174 1 0 0 -0.00107815 0.00815178 -0.00505317 -1.12824 -9.04562 19.673 
5789 362 3 1.008 0.03 11.3987 0.759404 5.44211 -136.148 -48.4229 152.989 -3 -1 3 0.00403271 0.0192565 0.0233746 13.5142 1.07394 7.64029 
6681 418 3 1.008 0.03 9.10861 2.19086 2.03937 107.473 -96.1738 51.2217 2 -2 1 -0.0261177 -0.0220417 -0.00439366 -7.89302 15.342 -6.39725 
6676 418 2 12.01 0.14 9.31168 3.23037 2.34548 107.676 -95.1343 51.5278 2 -2 1 0.00532582 -0.00343965 -0.00125901 17.5925 -11.8442 42.7665 
6682 418 3 1.008 0.03 10.1356 3.07905 3.09883 108.5 -95.2856 52.2812 2 -2 1 0.00300872 -0.000597122 0.00441031 -15.9623 -0.584523 -19.4924 
6679 418 3 1.008 0.03 10.7372 3.82273 0.854995 109.102 -94.542 50.0373 2 -2 1 0.0161036 0.0181387 -0.0006078 17.7999 -6.33476 -0.483442 
6680 418 3 1.008 0.03 10.2142 5.04504 1.9657 108.579 -93.3197 51.148 2 -2 1 0.015388 0.00513542 0.00658805 14.0131 15.2889 14.7264 
6675 418 2 12.01 0.14 9.90064 4.23231 1.36749 108.265 -94.1324 50.5498 2 -2 1 0.00103731 0.00114403 0.000420151 -12.8037 4.23098 -19.7788 
7245 453 3 1.008 0.03 13.4085 6.60675 0.534212 111.773 104.971 49.7166 2 2 1 -0.00522124 -0.00477207 -0.0096403 6.51773 5.89829 -9.8981 
9439 590 3 1.008 0.03 15.859 5.93568 2.86055 65.0413 5.93568 101.225 1 0 2 0.00266133 -0.0114253 -0.00787868 -17.0056 4.69089 13.3122 
9438 590 3 1.008 0.03 14.6039 5.60956 4.11877 63.7863 5.60956 102.483 1 0 2 -0.0154477 0.0319699 -0.013315 -13.581 -28.2141 8.27233 
614 39 2 12.01 0.11 10.797 8.43363 2.63645 59.9794 106.798 101.001 1 2 2 0.00140146 0.00455495 -0.00201817 0.87572 5.54763 59.8555 
610 39 1 16 -0.4 9.48295 8.58887 2.1544 58.6653 106.954 100.519 1 2 2 -0.00449567 0.00558962 -0.00348401 -18.1681 -4.25267 -1.1506 
7745 485 1 16 -0.4 16.5975 3.40123 4.81006 16.5975 150.948 4.81006 0 3 0 0.000216537 0.00094377 0.00806416 -0.677798 10.9289 5.40476 
9430 590 2 12.01 0.11 15.1846 6.3448 3.65728 64.367 6.3448 102.022 1 0 2 -0.0034998 0.00117571 -0.00309261 2.88846 37.2184 -41.3916 
9440 590 3 1.008 0.03 15.8046 6.72749 4.43011 64.987 6.72749 102.795 1 0 2 0.022875 0.0169027 -0.017189 11.3635 8.71673 12.4531 
7757 485 3 1.008 0.03 16.2974 3.34547 6.82657 16.2974 150.893 6.82657 0 3 0 -0.00557793 0.00231 0.00960856 -18.0264 6.06176 18.2019 
4001 251 1 16 -0.4 12.9778 2.80514 1.23559 62.1602 101.17 197.965 1 2 4 -0.00060486 -0.00416872 -0.00435965 -31.7493 -41.5036 8.51529 
4005 251 2 12.01 0.11 14.1135 2.91129 2.00562 63.2959 101.276 198.735 1 2 4 0.00128603 4.81939e-05 2.58888e-05 45.7058 -18.6937 1.872 
623 39 3 1.008 0.03 10.8838 7.48378 3.18869 60.0662 105.848 101.553 1 2 2 -0.00331762 0.00357738 -0.00030024 4.17976 1.92785 -12.6511 
4012 251 3 1.008 0.03 14.5322 3.87426 1.8648 63.7146 102.239 198.594 1 2 4 0.00527289 -0.0068236 0.005888 7.5797 19.5663 1.5054 
4763 298 3 1.008 0.03 11.4353 7.24593 6.84249 60.6177 7.24593 6.84249 1 0 0 0.00614079 0.00520958 0.0150443 -18.2409 -15.6113 8.27417 
5792 362 3 1.008 0.03 14.0429 2.4141 7.21356 -133.504 -46.7682 154.761 -3 -1 3 -0.00929996 0.0185715 0.00844648 11.2007 7.47784 -20.5891 
4011 251 3 1.008 0.03 14.8878 2.19026 1.67179 64.0701 100.555 198.401 1 2 4 0.0139834 -0.00295504 -0.0161807 -8.29945 11.121 -3.58086 
4013 251 3 1.008 0.03 14.0726 2.66887 3.05578 63.255 101.034 199.785 1 2 4 0.0103485 0.00299712 0.0201424 -14.806 5.5105 9.80204 
9426 590 1 16 -0.4 14.2656 7.36624 3.1612 63.4479 7.36624 101.526 1 0 2 -0.00341967 -0.00303975 -0.00273988 21.968 -0.673015 -11.3251 
4760 298 3 1.008 0.03 8.96304 4.68818 6.14249 58.1454 4.68818 6.14249 1 0 0 -0.00783152 0.0150249 0.0158603 1.2027 -3.25119 -16.4467 
5790 362 3 1.008 0.03 12.2044 2.129 7.27423 -135.343 -47.0534 154.821 -3 -1 3 0.0153401 -0.00542498 0.00120392 23.1713 12.5255 6.85446 
4007 251 3 1.008 0.03 13.2194 0.761866 1.54728 62.4017 99.1266 198.277 1 2 4 -0.00734636 -0.0109593 0.00849747 9.9794 -13.2609 5.20697 
4008 251 3 1.008 0.03 11.7908 1.39497 2.35604 60.9731 99.7597 199.085 1 2 4 0.0216801 0.00934729 0.00805191 3.27611 1.27998 -0.175578 
5788 362 3 1.008 0.03 9.75159 1.26792 5.72833 -137.795 -47.9144 153.275 -3 -1 3 0.00923203 -0.0160604 0.0212952 14.8525 -10.1422 0.668734 
9428 590 2 12.01 0.14 14.8781 8.50278 2.47173 64.0604 8.50278 100.836 1 0 2 -0.00464934 -0.00101853 0.000378321 -7.47455 -11.86 23.1112 
9434 590 3 1.008 0.03 15.7795 8.27298 1.93015 64.9618 8.27298 100.295 1 0 2 -0.0125701 0.00320858 -0.000346797 -0.529534 -13.9267 -15.4546 
4003 251 2 12.01 0.14 12.4197 1.46626 1.46439 61.6021 99.831 198.194 1 2 4 0.00053178 -0.00230572 0.00265736 -3.11717 43.1793 -4.21659 
4764 298 3 1.008 0.03 10.1153 6.66325 5.82446 59.2976 6.66325 5.82446 1 0 0 0.0128167 0.030714 0.011485 -0.737341 15.8603 7.08232 
4757 298 2 12.01 0.11 10.3841 6.86737 6.87649 59.5664 6.86737 6.87649 1 0 0 0.00887771 -0.0054411 0.000812309 40.1903 -76.2721 -31.7107 
4765 298 3 1.008 0.03 9.78254 7.55302 7.31501 58.9649 7.55302 7.31501 1 0 0 -0.0343957 0.00723043 -0.00886391 -33.9854 36.3787 19.4683 
6684 418 3 1.008 0.03 9.90419 6.58939 0.523814 108.269 -91.7753 49.7062 2 -2 1 0.000360512 0.00742405 -0.00530775 9.05746 3.51246 -3.38396 
7718 483 2 12.01 0.11 22.9043 4.29418 1.11837 -26.278 102.659 -146.429 -1 2 -3 0.00265627 0.001571 -0.00263504 19.9402 -8.33663 -14.3307 
7984 499 3 1.008 0.03 24.4908 8.05698 4.79837 -73.8739 -90.3077 53.9807 -2 -2 1 -0.0241744 -0.0305209 -0.00377516 -0.878592 -15.2391 -10.9604 
8920 558 3 1.008 0.03 22.3979 1.17166 1.30002 -26.7845 50.354 1.30002 -1 1 0 -0.00793944 0.00134457 0.0404554 7.28977 20.3943 13.6699 
7751 485 3 1.008 0.03 17.0456 3.7713 2.86512 17.0456 151.318 2.86512 0 3 0 0.0107494 0.00660226 -0.0134554 -8.02375 1.93813 -10.1645 
7872 492 3 1.008 0.03 21.7888 1.92775 4.74845 -27.3935 51.1101 4.74845 -1 1 0 0.00576339 -0.0295737 -0.00985611 -4.51459 -6.81968 16.1191 
7749 485 2 12.01 0.11 17.0988 3.31761 6.14676 17.0988 150.865 6.14676 0 3 0 0.00330233 -0.00877052 -0.00161051 40.881 -17.1058 -22.8305 
7756 485 3 1.008 0.03 17.8495 4.10577 6.32832 17.8495 151.653 6.32832 0 3 0 0.00744547 -0.0130313 -0.0243625 -11.5499 -1.98679 3.36283 
7858 492 1 16 -0.4 23.8034 2.18978 5.11924 -25.3789 51.3721 5.11924 -1 1 0 0.00885973 -0.00128351 0.00404409 40.8603 43.9163 -22.1716 
9597 601 8 19 -0.16 19.7104 7.45558 7.12595 -29.472 56.6379 7.12595 -1 1 0 -0.00233215 0.000807754 0.000688626 -13.0121 -6.34842 -4.16784 
7747 485 2 12.01 0.14 17.5644 3.70361 3.8004 17.5644 151.251 3.8004 0 3 0 -0.0022812 -0.00241314 0.00779276 11.0686 8.83409 9.52779 
7752 485 3 1.008 0.03 18.0884 4.66719 3.87745 18.0884 152.214 3.87745 0 3 0 -0.00559292 -0.00469014 -0.0302583 -5.04392 -5.52489 11.4124 
9596 601 7 12.01 0.35 20.2095 7.18275 5.93005 -28.9728 56.3651 5.93005 -1 1 0 0.00451458 0.000740838 -0.000718999 22.5749 -42.1017 -19.2367 
7746 485 1 16 -0.4 17.7107 1.48983 3.30229 17.7107 149.037 3.30229 0 3 0 0.0032587 -0.00030044 0.000908704 -28.4106 2.82558 9.47619 
7748 485 2 12.01 0.14 18.5407 2.55762 3.68254 18.5407 150.105 3.68254 0 3 0 0.00320081 -0.000772339 0.000973311 22.7425 -34.141 -16.041 
7754 485 3 1.008 0.03 19.1459 2.26901 4.52433 19.1459 149.816 4.52433 0 3 0 0.000172225 -0.0133224 0.0281989 -6.85835 5.67151 19.1995 
8794 550 3 1.008 0.03 18.3246 6.18632 2.06828 -80.0401 202.916 51.2506 -2 4 1 -0.000156528 -0.00502472 0.00279907 0.542929 0.751271 -17.7882 
7753 485 3 1.008 0.03 19.3331 2.64942 2.95429 19.3331 150.196 2.95429 0 3 0 0.00374532 0.0259556 -0.0179652 -4.35617 13.4904 -13.8934 
9595 601 6 16 -0.53 21.9081 5.50381 4.67319 -27.2742 54.6862 4.67319 -1 1 0 -0.00227627 0.00441216 -0.00204422 -9.87502 -5.70521 12.5173 
9594 601 6 16 -0.53 22.5799 6.54622 6.81935 -26.6024 55.7286 6.81935 -1 1 0 0.00113785 0.0019535 -0.0036618 -3.0142 -15.468 -10.8819 
9592 601 4 14.01 -0.66 20.8258 4.74059 6.88169 -28.3566 53.9229 6.88169 -1 1 0 0.00382417 -0.00301848 0.0059101 -29.4218 -27.3395 -2.49654 
9593 601 5 32.06 1.02 21.5744 5.83492 6.04798 -27.6079 55.0173 6.04798 -1 1 0 -0.00253384 -0.00496796 0.00154005 10.5163 52.7493 13.9868 
9598 601 8 19 -0.16 19.2553 6.72649 5.08733 -29.9271 55.9088 5.08733 -1 1 0 0.0034946 -0.00200091 0.000410345 3.98639 16.5676 26.9103 
9599 601 8 19 -0.16 20.6139 8.36118 5.46793 -28.5684 57.5435 5.46793 -1 1 0 0.0054324 -0.00280324 0.00314786 6.35006 -7.88279 -5.89975 
7755 485 3 1.008 0.03 17.6287 2.35047 6.34125 17.6287 149.898 6.34125 0 3 0 0.0213481 -0.000762938 0.00674954 -10.8579 16.0498 -6.88246 
7870 492 3 1.008 0.03 22.461 3.00668 3.62585 -26.7213 52.189 3.62585 -1 1 0 0.00541866 0.0188324 -0.00712828 13.4462 -7.72003 28.2191 
8924 558 3 1.008 0.03 19.7538 2.23026 0.473081 -29.4286 51.4126 0.473081 -1 1 0 -0.0270045 0.0220812 0.00167653 -1.51147 8.43462 7.77865 
8788 550 2 12.01 0.14 19.1172 6.70018 1.4968 -79.2475 203.43 50.6792 -2 4 1 -0.00846979 -0.00353385 0.00864008 7.17691 5.57491 8.83572 
10479 690 9 24.305 2 24.1846 1.78034 6.92541 -24.9978 50.9627 6.92541 -1 1 0 -0.00104464 -0.000640667 0.000676557 6.00584 -3.91427 4.01752 
7871 492 3 1.008 0.03 22.797 1.4108 3.46288 -26.3854 50.5931 3.46288 -1 1 0 0.00914057 0.00395549 0.00236409 12.5976 -9.73721 11.2967 
7862 492 2 12.01 0.11 22.7324 2.12994 4.2805 -26.45 51.3123 4.2805 -1 1 0 0.00600401 -0.000922372 0.0063158 -67.7174 7.83909 -70.5199 
8793 550 3 1.008 0.03 20.0355 6.14418 1.68169 -78.3292 202.874 50.864 -2 4 1 -0.0234253 0.0145091 0.00295428 -1.19119 -4.31867 2.90239 
7865 492 3 1.008 0.03 24.5389 3.4327 3.35721 -24.6434 52.615 3.35721 -1 1 0 -0.0107494 0.00760671 -0.0174979 1.69891 -4.58546 14.9556 
7860 492 2 12.01 0.14 24.7979 2.94892 4.3259 -24.3844 52.1313 4.3259 -1 1 0 0.00327184 0.00470651 -0.000528896 -7.87688 -36.5035 39.1344 
8787 550 2 12.01 0.14 19.2505 8.068 2.13861 -79.1142 204.797 51.321 -2 4 1 -0.00214214 -0.00447381 -0.00352761 -7.57223 22.5488 22.6725 
8791 550 3 1.008 0.03 19.296 7.85495 3.22063 -79.0687 204.584 52.403 -2 4 1 0.0201482 -0.000326403 0.00260843 2.26554 12.6025 -9.38226 
7727 483 3 1.008 0.03 22.9955 4.65944 2.14935 -26.1869 103.024 -145.398 -1 2 -3 0.011691 -0.00573916 0.0301983 0.370957 8.16799 -9.65202 
7726 483 3 1.008 0.03 23.6993 3.53796 0.949555 -25.4831 101.903 -146.597 -1 2 -3 -0.0027419 -0.00496734 0.00123587 -0.529832 19.0201 1.98857 
7728 483 3 1.008 0.03 22.0768 3.61713 1.10237 -27.1055 101.982 -146.445 -1 2 -3 1.36133e-05 -0.0232657 -0.0110026 -20.1041 2.0034 -0.288709 
8915 558 2 12.01 0.14 22.1659 0.417798 0.605887 -27.0165 49.6001 0.605887 -1 1 0 0.00278566 0.00352293 0.00805734 -24.3429 2.33446 -4.38649 
617 39 3 1.008 0.03 8.49605 9.25574 3.84942 57.6784 107.62 102.214 1 2 2 -0.0382157 0.0178868 -0.0111173 5.23568 8.86591 5.74483 
7268 455 2 12.01 0.14 2.55771 12.204 7.28567 51.7401 12.204 56.468 1 0 1 0.000905243 0.000505926 -0.00948511 1.82326 17.7091 -1.17435 
7102 444 3 1.008 0.03 7.69724 10.4241 5.94092 56.8796 59.6065 -43.2414 1 1 -1 -0.0112071 0.00494744 -0.00291765 -26.2611 -10.0649 -1.07095 
621 39 3 1.008 0.03 4.91134 9.25198 1.73254 54.0937 107.617 100.097 1 2 2 -0.0244508 0.0222807 -0.00648238 -14.2096 0.951372 1.88098 
620 39 3 1.008 0.03 4.16195 9.46118 3.36615 53.3443 107.826 101.731 1 2 2 0.00805715 0.0434096 -0.0105364 -13.2267 7.56872 -1.57362 
613 39 2 12.01 0.11 4.79815 8.85553 2.7483 53.9805 107.22 101.113 1 2 2 0.000404809 -0.00314296 -0.00615098 24.3292 35.7383 2.19727 
609 39 1 16 -0.4 6.05315 8.96274 3.37865 55.2355 107.327 101.743 1 2 2 -0.00263797 0.00126409 -0.00486695 10.3737 3.59836 -3.41145 
616 39 3 1.008 0.03 7.1489 9.19529 1.56305 56.3313 107.56 99.9278 1 2 2 -0.0449512 0.006806 -0.0153818 -1.06436 -2.17999 13.7454 
7266 455 1 16 -0.4 3.2982 11.2692 6.50523 52.4806 11.2692 55.6876 1 0 1 0.00140064 -0.00124185 -0.00326827 8.01183 -20.9973 16.0996 
7278 455 3 1.008 0.03 4.47255 9.51885 6.58679 53.6549 9.51885 55.7691 1 0 1 -0.0192552 -0.0343596 0.00260048 -2.56927 21.79 17.608 
7270 455 2 12.01 0.11 4.00353 10.2508 7.29745 53.1859 10.2508 56.4798 1 0 1 -0.0135264 -0.00134773 0.00540763 -26.6684 -16.1794 -34.5585 
7267 455 2 12.01 0.14 1.36757 12.8006 6.45411 50.5499 12.8006 55.6365 1 0 1 0.00150049 0.000407849 -0.000477382 -20.6541 12.7062 21.1354 
9001 563 3 1.008 0.03 2.18991 12.3972 1.70443 51.3723 61.5796 100.069 1 1 2 0.00400204 0.0196229 -0.00298834 11.3079 -9.46622 -7.76455 
8996 563 2 12.01 0.14 2.03584 11.6816 0.874102 51.2182 60.8639 99.2388 1 1 2 0.00259989 0.00848089 0.00483348 0.284453 26.6669 10.1296 
9007 563 3 1.008 0.03 4.61107 12.9634 0.585513 53.7934 62.1458 98.9502 1 1 2 -0.0011133 0.00752921 0.00211742 0.673165 -2.10932 18.0243 
4217 264 3 1.008 0.03 5.75168 11.9798 3.4716 5.75168 -86.3849 -45.7108 0 -2 -1 0.0169918 0.00806243 -0.0144452 5.7243 1.32457 6.70589 
4212 264 2 12.01 0.14 6.34475 12.8087 3.89001 6.34475 -85.556 -45.2923 0 -2 -1 0.00171327 -0.0049238 -0.00353431 19.9885 -13.5647 -9.22666 
9002 563 3 1.008 0.03 1.87651 10.7387 1.33628 51.0589 59.9211 99.701 1 1 2 -0.0307882 4.23357e-05 -0.0167419 -6.07057 -16.4286 8.04794 
4210 264 1 16 -0.4 5.87443 13.9992 3.31358 5.87443 -84.3655 -45.8688 0 -2 -1 0.00159436 -0.00341066 -0.00093427 -17.8062 2.43529 4.09893 
7272 455 3 1.008 0.03 0.833092 12.1112 5.83519 50.0154 12.1112 55.0175 1 0 1 -0.019687 -0.00412517 0.00823103 -2.09133 -19.537 1.07252 
7265 455 1 16 -0.4 1.80007 13.7895 5.57334 50.9824 13.7895 54.7557 1 0 1 -0.00292574 -0.00557448 0.00209859 16.273 15.605 -12.6704 
4218 264 3 1.008 0.03 6.39649 12.7404 4.98465 6.39649 -85.6243 -44.1977 0 -2 -1 -0.00100213 -0.0207552 0.00237859 -13.5434 5.05565 -3.7371 
4224 264 3 1.008 0.03 3.92811 13.2191 3.66778 3.92811 -85.1456 -45.5146 0 -2 -1 -0.00977859 -0.00195649 -0.0257895 -1.43297 -5.35444 -8.14362 
4215 264 3 1.008 0.03 7.89005 13.1473 2.35489 7.89005 -85.2174 -46.8275 0 -2 -1 -0.000639678 0.0103229 -0.0112744 -3.29936 -14.1785 27.6611 
4216 264 3 1.008 0.03 7.98564 11.6316 3.28148 7.98564 -86.7331 -45.9009 0 -2 -1 -0.015064 -0.000870362 0.000719441 13.5194 -3.01016 5.60858 
4211 264 2 12.01 0.14 7.79391 12.6924 3.39268 7.79391 -85.6723 -45.7897 0 -2 -1 -0.00167435 0.000553626 -0.00337594 -16.5925 19.4682 -31.8421 
2053 129 2 12.01 0.11 0.638216 9.3287 5.32013 49.8206 58.5111 54.5025 1 1 1 -0.000383767 -0.0031328 0.00436822 -6.05436 -6.56455 -29.8918 
4214 264 2 12.01 0.11 4.46395 14.1397 3.45391 4.46395 -84.225 -45.7284 0 -2 -1 0.0058941 0.00431843 0.00948262 3.22716 12.1402 -16.839 
4222 264 3 1.008 0.03 4.21617 14.7685 4.30281 4.21617 -83.5962 -44.8795 0 -2 -1 -0.0167877 0.0068778 0.0116437 1.86656 7.89544 -0.70828 
7275 455 3 1.008 0.03 1.37086 15.0362 4.00201 50.5532 15.0362 53.1844 1 0 1 -0.000433297 0.0233266 0.00173174 -10.9248 -6.20404 9.54243 
2060 129 3 1.008 0.03 1.51713 8.96744 5.79434 50.6995 58.1498 54.9767 1 1 1 -0.017834 -0.0239508 -0.0430698 20.3291 -9.05367 -1.28312 
4367 273 3 1.008 0.03 4.88541 16.4187 0.769066 4.88541 16.4187 197.498 0 0 4 -0.0245883 0.0206921 -0.0198035 17.1842 -10.5194 14.3041 
7269 455 2 12.01 0.11 0.836566 14.3122 4.6559 50.0189 14.3122 53.8382 1 0 1 0.00267456 0.00178816 0.00325838 2.81175 -5.54864 -17.2143 
4356 273 2 12.01 0.14 2.37309 16.6699 1.00256 2.37309 16.6699 197.732 0 0 4 -0.00130624 -0.0014178 -0.00566205 13.0147 30.4495 -19.4522 
4223 264 3 1.008 0.03 4.12536 14.5992 2.48562 4.12536 -83.7655 -46.6967 0 -2 -1 0.0244504 -0.010509 -0.0208389 -1.75829 -8.77182 23.9344 
4361 273 3 1.008 0.03 2.88678 16.7538 1.89605 2.88678 16.7538 198.625 0 0 4 0.0119893 -0.00758175 0.0310907 9.66401 11.8841 38.2792 
5071 317 3 1.008 0.03 6.89094 15.6968 4.63221 -42.2914 114.062 4.63221 -1 2 0 -0.00429097 0.0112973 -0.000450288 3.97815 18.3684 9.86364 
5062 317 2 12.01 0.11 7.59912 16.5324 4.46986 -41.5832 114.897 4.46986 -1 2 0 -0.00177239 -0.00372067 0.00142965 -6.84843 -4.7624 4.84708 
7094 444 2 12.01 0.11 8.57842 10.7308 6.42879 57.7608 59.9132 -42.7536 1 1 -1 -0.00291495 0.00869443 -0.00759775 19.8865 -22.5763 -5.55749 
7104 444 3 1.008 0.03 8.49248 11.7284 6.72481 57.6748 60.9108 -42.4575 1 1 -1 0.00944161 0.0274998 0.00425233 -7.05577 30.7621 8.41979 
5070 317 3 1.008 0.03 8.57037 15.9895 4.51818 -40.612 114.354 4.51818 -1 2 0 0.0027347 0.00903511 -0.0183194 -11.1684 15.2626 -15.1796 
2061 129 3 1.008 0.03 0.806638 10.1305 4.60019 49.989 59.3129 53.7825 1 1 1 0.00087437 -0.0205914 0.0120086 6.51508 -1.87107 -0.333905 
7271 455 3 1.008 0.03 0.587168 13.2855 7.10034 49.7695 13.2855 56.2827 1 0 1 -0.0151013 -0.0116418 -0.0137804 18.4813 -12.1517 -7.01824 
4362 273 3 1.008 0.03 2.32981 15.6288 0.906957 2.32981 15.6288 197.636 0 0 4 0.00576028 -0.032966 0.0136267 -21.4879 -29.1237 -9.36465 
8059 504 3 1.008 0.03 7.00327 14.9504 0.954733 105.368 64.1327 99.3194 2 1 2 0.0167096 0.00766565 0.0165338 -6.57159 6.41922 27.6411 
7688 481 3 1.008 0.03 10.097 14.074 0.936903 10.097 161.621 0.936903 0 3 0 -0.0140312 -0.0202178 0.017333 29.3127 -9.20682 -7.71966 
7097 444 3 1.008 0.03 10.6791 12.131 6.40483 59.8615 61.3134 -42.7775 1 1 -1 0.00565655 -0.0133005 -0.0251321 -9.04848 9.24746 -4.62704 
2231 140 3 1.008 0.03 16.6206 11.9179 7.03804 -32.5618 11.9179 7.03804 -1 0 0 0.00788919 -0.00133583 -0.00587632 -13.8588 10.2993 23.8045 
7103 444 3 1.008 0.03 8.85859 10.1252 7.27968 58.0409 59.3075 -41.9027 1 1 -1 -0.00682698 0.020642 0.0171179 -14.6249 -5.79004 6.13328 
7684 481 2 12.01 0.14 12.079 15.1496 0.913835 12.079 162.697 0.913835 0 3 0 -0.00759875 0.00359973 0.00312609 15.3143 -50.2969 -48.0332 
624 39 3 1.008 0.03 11.6645 8.62725 2.02154 60.8469 106.992 100.386 1 2 2 0.00344237 0.013134 0.000460042 -3.58709 -4.50692 -16.7323 
622 39 3 1.008 0.03 10.9217 9.1657 3.45854 60.1041 107.53 101.823 1 2 2 0.00558435 0.00109782 -0.0346104 -1.83322 -4.9954 -11.0277 
7693 481 3 1.008 0.03 10.3663 11.3262 0.887339 10.3663 158.873 0.887339 0 3 0 0.00228912 0.0174269 -0.0147342 -0.564789 -0.468743 -7.80449 
7683 481 2 12.01 0.14 11.1599 13.8823 0.591407 11.1599 161.429 0.591407 0 3 0 0.00630135 0.00493507 7.13589e-06 6.48014 50.6288 9.73101 
7090 444 1 16 -0.4 9.5765 10.5475 5.47638 58.7589 59.7299 -43.706 1 1 -1 0.00372225 -0.006217 -0.000702952 1.42776 9.46102 -0.43458 
7689 481 3 1.008 0.03 13.1402 14.8785 1.06868 13.1402 162.426 1.06868 0 3 0 -0.00104189 0.00563962 0.0194847 -11.1689 -1.64893 0.505838 
2233 140 3 1.008 0.03 15.0821 14.0701 6.87341 -34.1003 14.0701 6.87341 -1 0 0 -0.00779943 0.00457309 0.0116681 -14.309 15.3608 -53.914 
7096 444 3 1.008 0.03 11.7519 9.2202 6.50357 60.9342 58.4026 -42.6788 1 1 -1 -0.00320297 -0.000727137 0.0362465 -8.85378 21.5197 0.182783 
7091 444 2 12.01 0.14 11.543 10.251 6.8667 60.7253 59.4333 -42.3157 1 1 -1 -0.00280338 0.000207407 -0.00169441 -22.9207 -13.3092 15.6955 
4209 264 1 16 -0.4 8.60974 13.4057 4.31017 8.60974 -84.959 -44.8722 0 -2 -1 0.00170996 0.000161538 -0.00434472 -0.592968 -21.3661 10.0511 
7098 444 3 1.008 0.03 11.3731 11.2714 5.01518 60.5554 60.4538 -44.1672 1 1 -1 0.0104219 0.000454076 -0.0098167 -6.59978 4.39786 8.10918 
7092 444 2 12.01 0.14 10.7491 11.1663 5.92132 59.9315 60.3487 -43.261 1 1 -1 0.00136015 0.00147473 -0.00706991 33.6592 -21.8264 -9.72297 
9433 590 3 1.008 0.03 14.1446 8.93257 1.76462 63.3269 8.93257 100.129 1 0 2 -0.0163586 0.0154297 -0.00846988 7.1705 0.0773857 9.2794 
7050 441 3 1.008 0.03 16.0245 14.4597 3.05126 65.2068 14.4597 101.416 1 0 2 -0.0290998 -0.00116225 0.00477277 5.46785 -6.59923 15.8671 
7692 481 3 1.008 0.03 12.0458 10.7738 0.966838 12.0458 158.321 0.966838 0 3 0 0.0136606 -0.0136147 0.0102845 -0.798045 -2.07544 0.150593 
7685 481 2 12.01 0.11 11.3961 11.5734 0.617511 11.3961 159.12 0.617511 0 3 0 -0.0012823 0.00162692 -0.000844564 12.042 9.9122 8.04844 
7681 481 1 16 -0.4 11.786 12.7778 1.26463 11.786 160.325 1.26463 0 3 0 -0.00104144 -0.00419267 0.00269221 -12.1667 -2.85689 -22.9977 
7055 441 3 1.008 0.03 13.7687 13.5423 4.73536 62.9511 13.5423 103.1 1 0 2 0.0103726 -0.0132278 0.0176525 -17.6986 4.55851 5.16222 
4221 264 3 1.008 0.03 10.3315 12.788 3.19778 10.3315 -85.5767 -45.9846 0 -2 -1 0.000749008 0.0255936 0.0261209 -11.3271 2.59665 3.25632 
4213 264 2 12.01 0.11 9.90077 13.5935 3.81009 9.90077 -84.7712 -45.3723 0 -2 -1 0.00380231 0.000672902 -0.000524911 14.9423 36.6234 -15.8859 
7054 441 3 1.008 0.03 13.586 12.0397 3.89642 62.7684 12.0397 102.261 1 0 2 0.00440586 -0.0193819 0.00774798 -15.168 -16.0961 -2.69776 
4219 264 3 1.008 0.03 9.76031 14.5481 3.22356 9.76031 -83.8166 -45.9588 0 -2 -1 0.00336391 -0.00194651 0.00203595 12.9626 -26.9656 6.58589 
7046 441 2 12.01 0.11 14.0115 13.0079 3.83452 63.1939 13.0079 102.199 1 0 2 0.00517252 -0.00288445 -0.0146001 51.7462 -9.15315 22.7819 
7042 441 1 16 -0.4 15.4497 12.8054 3.95417 64.632 12.8054 102.319 1 0 2 0.00104397 0.00275294 0.00441158 -18.2132 -2.72323 5.14661 
7682 481 1 16 -0.4 11.5608 15.7509 1.99115 11.5608 163.298 1.99115 0 3 0 -0.00137242 0.00043111 -0.000583357 -12.1929 42.5798 49.8566 
7044 441 2 12.01 0.14 16.1174 14.0399 4.08311 65.2998 14.0399 102.448 1 0 2 -0.000620168 0.000595132 -8.09795e-05 -47.0279 23.9708 -58.372 
7049 441 3 1.008 0.03 15.4996 14.7661 4.62755 64.682 14.7661 102.992 1 0 2 0.00725966 -0.0205326 -0.00121929 13.6992 -1.91646 9.66076 
7056 441 3 1.008 0.03 13.6651 13.5269 2.97135 62.8475 13.5269 101.336 1 0 2 0.00434418 -0.00674111 0.000103578 -1.30831 8.69621 -14.7082 
4220 264 3 1.008 0.03 10.6605 13.8164 4.57493 10.6605 -84.5483 -44.6074 0 -2 -1 -0.0255246 -0.00611544 0.0104161 -10.795 -0.139529 -0.369234 
9431 590 3 1.008 0.03 14.7593 9.63096 4.39612 63.9417 9.63096 102.761 1 0 2 0.00712804 -0.0148857 -0.00402897 3.41064 -4.48724 -16.5121 
9427 590 2 12.01 0.14 15.4115 9.50619 3.50165 64.5938 9.50619 101.866 1 0 2 0.00381304 0.00250255 0.00264906 -18.1422 7.92967 25.9798 
9432 590 3 1.008 0.03 15.4874 10.4841 3.05152 64.6697 10.4841 101.416 1 0 2 -0.0260603 -0.0283421 0.0267137 3.65517 4.4193 -4.41407 
9425 590 1 16 -0.4 16.6735 9.06121 3.95131 65.8558 9.06121 102.316 1 0 2 -0.00569459 -0.0017036 0.00388566 13.9491 -9.90214 -3.92847 
9435 590 3 1.008 0.03 16.7687 10.0563 5.74982 65.9511 10.0563 104.115 1 0 2 -0.0109674 -0.0244474 -0.00457456 -12.5666 -5.57719 19.2248 
7095 444 3 1.008 0.03 12.467 10.7324 6.85538 61.6494 59.9148 -42.327 1 1 -1 -0.0229085 -0.0195839 5.17586e-05 33.6878 8.75517 7.79008 
7694 481 3 1.008 0.03 13.2298 16.5179 2.97175 13.2298 164.065 2.97175 0 3 0 -0.0130928 0.000497924 0.0176287 28.5957 -22.4424 21.6336 
2928 183 3 1.008 0.03 16.1392 12.069 0.869947 65.3215 -37.1133 99.2346 1 -1 2 0.000715493 -0.00754851 -0.0191489 10.574 2.99091 -6.95259 
2232 140 3 1.008 0.03 14.8718 11.8289 6.95109 -34.3105 11.8289 6.95109 -1 0 0 0.00581229 -0.0144221 -0.00787684 11.6641 -2.24822 17.2628 
7970 499 1 16 -0.4 24.9449 10.0057 4.6161 -73.4198 -88.359 53.7984 -2 -2 1 -0.00774049 0.00122558 0.00118113 26.5365 -2.41472 1.92663 
3561 223 3 1.008 0.03 21.4584 15.9666 0.551077 -175.271 -131.58 0.551077 -4 -3 0 0.0215896 0.00778231 -0.00767598 -7.94576 -8.90226 0.0604228 
3556 223 2 12.01 0.14 22.1677 16.6758 0.936179 -174.562 -130.871 0.936179 -4 -3 0 0.00845314 -0.000739121 -0.00706475 33.9754 -12.5153 -15.1781 
7969 499 1 16 -0.4 24.5467 11.8455 6.92716 -73.818 -86.5192 56.1095 -2 -2 1 0.00185086 -0.00251152 0.00304991 7.84752 -14.7827 -13.7485 
7048 441 3 1.008 0.03 17.7561 15.073 4.32512 66.9384 15.073 102.69 1 0 2 0.00504407 0.0184799 -0.0105584 28.6906 29.3853 -9.02762 
7043 441 2 12.01 0.14 17.5591 14.0573 4.40272 66.7415 14.0573 102.767 1 0 2 -0.00736435 -0.00174709 -0.00468396 6.04305 -45.2128 6.45284 
7047 441 3 1.008 0.03 17.6873 13.8202 5.42535 66.8697 13.8202 103.79 1 0 2 -0.0193764 -0.00350207 -0.00629962 0.513711 -5.68564 22.3993 
7041 441 1 16 -0.4 18.3228 13.104 3.62425 67.5052 13.104 101.989 1 0 2 0.00230732 0.00420281 -0.00206796 4.30884 16.4087 -4.28229 
7983 499 3 1.008 0.03 24.8788 8.73654 6.22363 -73.4859 -89.6282 55.406 -2 -2 1 -0.0293143 -0.0086791 0.00630024 1.80061 1.92669 36.067 