ITEM: TIMESTEP
2350000
ITEM: NUMBER OF ATOMS
10479
ITEM: BOX BOUNDS pp pp pp
4.0882558190751794e-01 4.9591174418091420e+01
4.0882558190751794e-01 4.9591174418091420e+01
4.0882558190751794e-01 4.9591174418091420e+01
ITEM: ATOMS id mol type mass q x y z xu yu zu ix iy iz vx vy vz fx fy fz 
10125 636 5 32.06 1.02 6.50006 8.0163 4.67789 6.50006 8.0163 53.8602 0 0 1 0.00138382 -0.000569519 -0.00067349 45.0326 4.46556 -21.5735 
10128 636 7 12.01 0.35 6.18908 7.65458 2.86651 6.18908 7.65458 52.0489 0 0 1 -0.00130364 -0.00122093 -0.000590675 -49.9052 -11.6941 -9.02498 
10130 636 8 19 -0.16 5.41512 6.53802 2.73122 5.41512 6.53802 51.9136 0 0 1 -0.000421467 0.00300291 0.0019858 29.8415 25.724 4.27376 
10129 636 8 19 -0.16 7.24842 7.49639 2.09304 7.24842 7.49639 51.2754 0 0 1 -0.00180185 -0.000704219 -0.0017474 8.48712 -2.02963 9.37091 
4385 275 1 16 -0.4 6.70115 1.09168 3.69606 105.066 1.09168 -45.4863 2 0 -1 -0.0063156 0.000673684 0.00267608 41.0083 10.4583 21.5402 
1184 74 3 1.008 0.03 6.3608 4.86624 1.27426 6.3608 54.0486 50.4566 0 1 1 -0.00504344 0.0117984 -0.00952536 -1.74959 -19.5833 -7.82739 
1174 74 2 12.01 0.11 5.8583 3.86846 1.29564 5.8583 53.0508 50.478 0 1 1 0.00302787 -0.00178069 -0.00234995 -10.385 26.4731 7.89692 
4391 275 3 1.008 0.03 4.85306 0.576181 3.01936 103.218 0.576181 -46.163 2 0 -1 0.0208054 -0.0060914 0.00291405 14.7557 -4.62679 10.4545 
10127 636 6 16 -0.53 7.51105 7.03589 5.1063 7.51105 7.03589 54.2887 0 0 1 -0.00315132 -0.00194324 0.00222786 -22.7491 -16.5106 7.4093 
2249 141 3 1.008 0.03 8.52727 4.90095 3.55334 8.52727 4.90095 52.7357 0 0 1 0.00808468 -0.0122989 0.00892966 12.3957 -8.22616 -3.38385 
1172 74 2 12.01 0.14 3.7666 5.02523 0.861053 3.7666 54.2076 50.0434 0 1 1 0.00529202 -0.00158487 -0.00518489 39.693 7.31532 -15.9549 
7932 496 3 1.008 0.03 6.43651 3.68171 5.06238 6.43651 3.68171 54.2447 0 0 1 -0.00544061 0.000181148 -0.00670239 11.76 0.199654 12.0585 
6269 392 3 1.008 0.03 2.05072 6.20409 4.86462 2.05072 6.20409 103.229 0 0 2 0.0171456 0.00517222 0.0178865 0.464209 -1.79216 2.52797 
6271 392 3 1.008 0.03 3.98185 0.450903 6.61938 3.98185 0.450903 104.984 0 0 2 0.000641153 -0.00367035 0.000318033 0.401351 22.7786 25.2411 
6267 392 3 1.008 0.03 1.68014 5.03665 6.25458 1.68014 5.03665 104.619 0 0 2 -0.00356185 0.0101233 -0.017369 7.34193 18.4083 -17.5305 
1182 74 3 1.008 0.03 5.59455 3.7634 2.33655 5.59455 52.9457 51.5189 0 1 1 -0.000972072 -0.00780986 -0.0258591 0.164634 -3.75766 7.9418 
2427 152 3 1.008 0.03 3.17234 7.85422 1.93955 -144.375 57.0366 100.304 -3 1 2 -0.0129111 0.0164819 -0.00311128 -2.16182 -36.1878 -10.1342 
6268 392 3 1.008 0.03 2.67988 6.41311 6.60622 2.67988 6.41311 104.971 0 0 2 -0.0106139 -0.010081 0.000222784 -7.37197 -9.43377 -31.9461 
6261 392 2 12.01 0.11 2.43556 5.69918 5.75694 2.43556 5.69918 104.122 0 0 2 -0.00301858 -0.000432215 -0.00320981 6.55097 -9.89973 52.493 
10126 636 6 16 -0.53 5.15949 7.968 5.21476 5.15949 7.968 54.3971 0 0 1 0.000434899 0.00232892 -0.00200591 13.1429 5.019 12.3823 
6263 392 3 1.008 0.03 2.70045 3.81702 4.07635 2.70045 3.81702 102.441 0 0 2 0.000517134 0.0141917 0.0386861 23.304 -8.75857 15.2627 
6259 392 2 12.01 0.14 3.40628 3.64903 4.94558 3.40628 3.64903 103.31 0 0 2 0.0065172 0.00122168 0.00301029 -66.3849 49.5694 -17.5235 
6264 392 3 1.008 0.03 4.31595 3.28849 4.64596 4.31595 3.28849 103.011 0 0 2 0.00771054 -0.00649684 0.0270406 36.0177 -15.6674 -22.7331 
6257 392 1 16 -0.4 3.62474 4.92705 5.55323 3.62474 4.92705 103.918 0 0 2 0.00673201 -0.000395159 0.00174431 -10.6081 -1.97112 -7.96671 
7933 496 3 1.008 0.03 8.0338 3.07445 5.61417 8.0338 3.07445 54.7965 0 0 1 0.00416916 -0.0102293 0.00846078 -8.4643 7.13676 2.17872 
7925 496 2 12.01 0.11 7.0725 3.49892 5.95719 7.0725 3.49892 55.1395 0 0 1 -0.00180303 -0.0111419 0.00229854 -19.3925 -10.6732 -0.924973 
1178 74 3 1.008 0.03 3.76105 5.23113 1.901 3.76105 54.4135 51.0833 0 1 1 -0.000435789 0.0121293 0.0178388 -9.41256 -1.05094 21.0154 
3559 223 3 1.008 0.03 1.27623 1.53729 2.49502 -97.0885 -47.6451 2.49502 -2 -1 0 0.0109313 0.00435303 0.0196557 4.41672 3.76886 3.64094 
7931 496 3 1.008 0.03 6.55507 2.67817 6.52267 6.55507 2.67817 55.705 0 0 1 -0.00422877 -0.00191429 -0.0143581 11.4304 17.6697 -6.1495 
4389 275 2 12.01 0.11 8.00604 0.519815 3.98664 106.371 0.519815 -45.1957 2 0 -1 0.00237467 -0.000151191 -0.00420256 -34.8509 13.3982 30.1201 
7921 496 1 16 -0.4 7.25531 4.7187 6.72047 7.25531 4.7187 55.9028 0 0 1 0.000623233 -0.00300336 0.00211789 15.4306 -17.777 -9.63675 
1170 74 1 16 -0.4 4.59072 3.90939 0.592949 4.59072 53.0917 49.7753 0 1 1 -0.00529544 -0.00258102 -0.00393174 20.2131 -20.8602 -2.20481 
6266 392 3 1.008 0.03 2.5957 1.7561 5.34376 2.5957 1.7561 103.708 0 0 2 -0.0215919 0.00110982 0.0294102 1.37613 -17.0278 -10.0363 
6260 392 2 12.01 0.14 2.79297 2.65421 5.87947 2.79297 2.65421 104.244 0 0 2 0.000219272 0.0007816 0.00384644 -12.4192 7.51371 35.7896 
6265 392 3 1.008 0.03 1.81308 2.90488 6.3641 1.81308 2.90488 104.729 0 0 2 0.0257087 -0.0122581 0.0100494 19.5662 1.59249 -12.2899 
6258 392 1 16 -0.4 3.79988 2.52405 6.87466 3.79988 2.52405 105.239 0 0 2 -0.00102266 0.00304109 -0.00311756 -4.58218 -12.7497 0.784486 
7927 496 3 1.008 0.03 5.38021 5.37197 6.91466 5.38021 5.37197 56.097 0 0 1 0.0156928 0.0139143 0.0132252 -33.4023 9.05801 -13.7384 
1175 74 3 1.008 0.03 1.6643 5.30006 0.845022 1.6643 54.4824 50.0274 0 1 1 0.01233 -0.00480289 0.0124515 -8.00472 -2.51919 9.86375 
1183 74 3 1.008 0.03 6.55837 3.03334 1.10235 6.55837 52.2157 50.2847 0 1 1 -0.0311696 0.0224521 0.0281573 -10.5425 8.814 -8.79965 
6262 392 2 12.01 0.11 3.77888 1.22353 7.43047 3.77888 1.22353 105.795 0 0 2 -0.00636168 0.00609758 0.00309604 0.135168 -34.4797 10.714 
9453 591 3 1.008 0.03 3.71897 1.34191 0.513343 3.71897 50.5243 49.6957 0 1 1 0.0211807 0.0113801 -0.00809298 -0.266113 12.0285 5.43985 
2173 136 3 1.008 0.03 8.70952 2.11847 1.71146 107.074 2.11847 1.71146 2 0 0 -0.00219709 0.0162221 0.00785088 -9.15212 -12.61 12.9856 
2106 132 3 1.008 0.03 14.7147 0.603673 4.27278 -34.4676 -97.761 53.4551 -1 -2 1 0.0129621 -0.00279864 0.0095116 -10.2304 -6.85118 -0.583441 
4397 275 3 1.008 0.03 8.82269 1.24365 4.00561 107.187 1.24365 -45.1767 2 0 -1 0.0166265 0.01703 0.0156631 -1.07053 -0.341808 -10.7351 
4011 251 3 1.008 0.03 13.6096 3.03161 5.77554 62.792 52.214 153.323 1 1 3 -0.00515037 -0.00775805 0.0204214 12.5249 12.675 16.2277 
2098 132 1 16 -0.4 12.6574 1.02776 4.47886 -36.525 -97.3369 53.6612 -1 -2 1 0.00364252 0.000513104 0.00649162 42.4967 21.7182 -27.7271 
2103 132 3 1.008 0.03 15.3012 2.05064 2.6946 -33.8812 -96.3141 51.8769 -1 -2 1 -0.0390269 0.00143105 0.0294579 -3.28927 9.22282 -19.9472 
2100 132 2 12.01 0.14 13.8606 0.87127 3.63264 -35.3218 -97.4934 52.815 -1 -2 1 0.0054534 0.00288486 -0.00315786 -11.619 44.7411 58.432 
2250 141 3 1.008 0.03 9.83561 3.78184 3.25267 9.83561 3.78184 52.435 0 0 1 -0.0162307 0.00397341 -0.010904 0.363503 -15.2621 -28.3371 
2244 141 2 12.01 0.14 9.62797 4.76269 3.58762 9.62797 4.76269 52.77 0 0 1 -0.000603912 0.000452593 -0.00102313 -37.0141 57.5322 43.6078 
2247 141 3 1.008 0.03 10.1083 5.65392 1.79008 10.1083 5.65392 50.9724 0 0 1 0.0180815 -0.0215046 -0.0116722 -7.82719 13.3144 -26.8879 
2243 141 2 12.01 0.14 10.2107 5.95814 2.79699 10.2107 5.95814 51.9793 0 0 1 0.000713291 0.00192854 0.000995926 69.2963 -45.8681 37.7887 
2251 141 3 1.008 0.03 9.88101 8.05719 1.40001 9.88101 8.05719 50.5824 0 0 1 0.00143262 -0.00794004 0.00802176 6.55302 0.244024 13.0972 
2097 132 1 16 -0.4 13.2325 2.56719 2.12391 -35.9498 -95.7975 51.3063 -1 -2 1 0.00648686 0.00276608 -0.00120241 28.282 12.2391 -18.6472 
2241 141 1 16 -0.4 9.69745 7.16496 3.26842 9.69745 7.16496 52.4508 0 0 1 0.00789832 0.00785279 0.00425339 -14.1685 9.89274 3.81671 
2245 141 2 12.01 0.11 10.118 8.24739 2.46764 10.118 8.24739 51.65 0 0 1 -0.00104147 0.00275243 -0.00164034 -45.7954 26.9988 -25.377 
2253 141 3 1.008 0.03 11.1335 8.4586 2.56441 11.1335 8.4586 51.7468 0 0 1 0.0128163 -0.0147103 -0.0323758 33.7201 1.4343 2.69357 
2101 132 2 12.01 0.11 13.5494 3.77746 1.41038 -35.6329 -94.5872 50.5927 -1 -2 1 0.00583362 -0.00376123 0.00349994 0.107692 -7.66445 -6.06679 
10161 638 8 19 -0.16 15.2307 6.9393 2.86205 15.2307 6.9393 52.0444 0 0 1 -0.00349412 0.00449127 0.00585083 5.01972 21.7447 7.67124 
2248 141 3 1.008 0.03 11.3351 5.96594 3.02527 11.3351 5.96594 52.2076 0 0 1 -0.007455 0.0166657 -0.0147287 -36.5936 1.34678 -13.4926 
2104 132 3 1.008 0.03 14.3044 3.01468 3.75804 -34.8779 -95.35 52.9404 -1 -2 1 -0.0224074 -0.00940237 0.0333893 6.26121 7.86262 11.5702 
2099 132 2 12.01 0.14 14.285 2.23716 3.0273 -34.8973 -96.1275 52.2097 -1 -2 1 -0.00253632 0.00414729 0.00313221 -31.9547 -32.6545 8.90195 
2107 132 3 1.008 0.03 13.2984 4.62037 2.00326 -35.8839 -93.7443 51.1856 -1 -2 1 0.0297219 0.0379437 -0.0123153 -6.80601 13.3726 14.1955 
2242 141 1 16 -0.4 9.98614 4.90419 4.99801 9.98614 4.90419 54.1804 0 0 1 0.000186153 0.000216852 -0.000563729 -10.9351 -0.218089 -25.9168 
2254 141 3 1.008 0.03 11.9764 4.24002 4.60062 11.9764 4.24002 53.783 0 0 1 -0.00392093 -0.00959464 0.0102886 17.6218 9.57992 -22.2196 
2246 141 2 12.01 0.11 11.0852 4.01527 5.10991 11.0852 4.01527 54.2923 0 0 1 -0.00142419 0.00238375 -0.0024009 -24.735 -15.9794 39.5171 
2256 141 3 1.008 0.03 10.726 2.99177 4.88028 10.726 2.99177 54.0626 0 0 1 0.00328582 -0.0130633 0.0207725 14.6449 4.13943 9.04108 
2172 136 3 1.008 0.03 10.4393 1.58256 1.83902 108.804 1.58256 1.83902 2 0 0 0.00679948 0.0121274 -0.00254183 9.01395 -8.64698 18.3484 
10461 672 9 24.305 2 8.78094 5.86636 6.48699 8.78094 5.86636 55.6693 0 0 1 0.00263913 0.00143846 -0.00312551 -11.2571 12.1872 -6.54508 
5260 329 3 1.008 0.03 16.6562 4.94085 3.15175 -32.5261 54.1232 3.15175 -1 1 0 -0.00480052 0.00253245 -0.0228635 -34.1856 6.90194 2.084 
4008 251 3 1.008 0.03 14.8369 5.42276 5.25611 64.0192 54.6051 152.803 1 1 3 -0.00855843 -0.00186257 0.000427184 -0.316095 -11.7658 7.06264 
4003 251 2 12.01 0.14 15.217 5.20486 6.26913 64.3993 54.3872 153.816 1 1 3 0.00281635 0.00136132 -0.000909391 -1.84465 28.2382 -1.3275 
976 61 3 1.008 0.03 11.776 8.03127 5.92532 11.776 8.03127 55.1077 0 0 1 -0.0325734 -0.00121174 -0.0340022 -24.1009 -1.077 0.0439287 
966 61 2 12.01 0.11 10.7383 8.20459 6.32265 10.7383 8.20459 55.505 0 0 1 0.00294777 0.00521397 -0.00220373 -5.47585 19.1813 -8.97957 
2255 141 3 1.008 0.03 11.3606 4.0543 6.14997 11.3606 4.0543 55.3323 0 0 1 0.0170536 0.0121418 -0.00822192 4.84505 -6.28926 6.5246 
2165 136 2 12.01 0.11 9.63061 1.87471 1.21738 107.995 1.87471 1.21738 2 0 0 0.000711749 -0.00441005 -0.00431806 1.02771 36.1834 -32.6926 
10160 638 8 19 -0.16 13.985 8.40135 2.14269 13.985 8.40135 51.325 0 0 1 -0.00663747 -0.00401632 0.00477677 -22.4651 17.9953 -9.96074 
974 61 3 1.008 0.03 9.99416 8.4889 5.49918 9.99416 8.4889 54.6815 0 0 1 -0.0137881 0.00748769 0.00609079 29.8415 -5.01108 24.4668 
4007 251 3 1.008 0.03 16.2151 4.73585 6.24617 65.3975 53.9182 153.793 1 1 3 0.00512924 -0.0134964 0.00822235 -10.286 -2.48699 -5.77592 
4010 251 3 1.008 0.03 15.9895 7.15229 6.34657 65.1719 56.3346 153.894 1 1 3 0.0147796 -0.0240898 0.0117988 18.2244 12.3213 -17.4004 
4004 251 2 12.01 0.14 15.3911 6.54057 6.957 64.5735 55.7229 154.504 1 1 3 0.00574419 0.00171034 0.00227186 -22.3081 15.3312 12.5636 
962 61 1 16 -0.4 10.1928 7.06941 7.01918 10.1928 7.06941 56.2015 0 0 1 0.000914549 0.00267417 0.00188759 -10.5259 8.48332 -28.48 
4012 251 3 1.008 0.03 15.0391 2.65422 6.77713 64.2215 51.8366 154.324 1 1 3 0.0210776 -0.00963899 0.0219929 0.937537 -4.2435 2.93967 
4002 251 1 16 -0.4 14.209 7.3001 7.3616 63.3914 56.4825 154.909 1 1 3 -0.00320783 0.00944058 -0.00118114 24.1521 -12.6841 -23.2269 
2109 132 3 1.008 0.03 12.9401 3.87645 0.511413 -36.2422 -94.4882 49.6938 -1 -2 1 -0.0030901 -0.0209438 0.00467324 0.318931 -3.83055 -0.615335 
2108 132 3 1.008 0.03 14.6021 3.96383 1.14476 -34.5803 -94.4009 50.3271 -1 -2 1 0.00696846 -0.024325 0.00433362 -5.01477 -12.9015 0.119359 
10158 638 7 12.01 0.35 14.8404 8.20804 3.09833 14.8404 8.20804 52.2807 0 0 1 -0.000527403 -0.00273102 -0.00309622 42.1925 -57.254 -50.2104 
10159 638 8 19 -0.16 14.2229 8.12924 4.20788 14.2229 8.12924 53.3902 0 0 1 0.000674615 0.00039112 0.00386993 -27.1624 11.3818 38.8288 
2171 136 3 1.008 0.03 9.48534 1.17121 0.409926 107.85 1.17121 0.409926 2 0 0 -0.00603949 -0.00409528 -0.00534361 -0.0511276 -12.9669 2.6412 
4001 251 1 16 -0.4 14.3216 4.59961 7.15235 63.5039 53.782 154.699 1 1 3 -0.00216146 0.000177376 0.00415415 -11.6282 -45.3378 -18.8884 
4005 251 2 12.01 0.11 14.1105 3.21794 6.75489 63.2929 52.4003 154.302 1 1 3 -0.00227986 0.00146207 0.00484727 -7.32221 22.171 -10.1756 
2161 136 1 16 -0.4 9.95852 3.13876 0.64779 108.323 3.13876 0.64779 2 0 0 -0.00642046 -0.00525186 0.00625773 -0.931403 -7.73045 -6.6274 
970 61 3 1.008 0.03 12.016 6.15593 7.40164 12.016 6.15593 56.584 0 0 1 -0.000801956 -0.00709544 -0.0204844 3.73096 4.59534 -1.98267 
8273 518 1 16 -0.4 19.6352 0.746207 5.3666 19.6352 49.9286 5.3666 0 1 0 -0.00176938 0.0038879 4.53028e-05 -27.7792 22.3613 9.35861 
5920 370 3 1.008 0.03 24.3521 1.36442 2.57243 24.3521 50.5468 2.57243 0 1 0 -0.0263905 0.00754336 -0.028858 -6.77225 20.5397 -9.32256 
10139 637 8 19 -0.16 23.6772 6.76282 3.21512 -25.5052 55.9452 3.21512 -1 1 0 -0.00972298 -0.00351118 0.00345753 -24.2173 -4.22439 12.5285 
2378 149 3 1.008 0.03 21.9503 1.75068 7.07563 21.9503 50.933 7.07563 0 1 0 -0.0146427 -0.0132557 0.0151664 -13.0398 2.48555 29.562 
5261 329 3 1.008 0.03 17.4995 3.96739 2.08257 -31.6828 53.1497 2.08257 -1 1 0 0.0285207 -0.0271083 -0.0266234 12.6502 -2.57518 -24.0586 
5253 329 2 12.01 0.11 17.303 4.11227 3.10581 -31.8793 53.2946 3.10581 -1 1 0 0.00551467 0.0010234 0.00599153 11.9787 -2.23654 10.6444 
5259 329 3 1.008 0.03 16.9203 3.18567 3.48284 -32.262 52.368 3.48284 -1 1 0 -0.00551763 0.00139955 -0.00592238 -11.0644 -4.69612 5.93499 
5255 329 3 1.008 0.03 17.7813 6.18928 4.45754 -31.401 55.3716 4.45754 -1 1 0 0.0127748 -0.00608735 0.00182118 18.7865 2.52084 -9.45045 
5257 329 3 1.008 0.03 18.1986 6.30719 1.94824 -30.9838 55.4895 1.94824 -1 1 0 0.0267153 -0.0151385 -0.0260539 24.9073 -1.17028 1.33472 
5271 330 3 1.008 0.03 23.5424 6.91042 6.25326 72.7247 -42.2719 -42.9291 1 -1 -1 0.018011 0.0178606 0.0129096 6.70799 0.903159 -15.4363 
5251 329 2 12.01 0.14 18.6917 5.7588 3.96995 -30.4907 54.9411 3.96995 -1 1 0 0.000296716 0.0018777 -0.00656527 12.7509 44.9904 62.672 
5256 329 3 1.008 0.03 19.5122 5.84741 4.75942 -29.6701 55.0298 4.75942 -1 1 0 0.0102255 0.00570049 -0.00382088 -22.1898 2.68743 -28.9215 
10134 637 6 16 -0.53 24.4484 4.36289 1.63195 -24.7339 53.5452 1.63195 -1 1 0 0.00588414 0.00672328 -0.00149175 -23.0759 -4.18435 -24.8562 
8277 518 2 12.01 0.11 18.9419 1.98371 5.85352 18.9419 51.1661 5.85352 0 1 0 -0.000469041 -0.00189706 -0.00484083 38.8561 -34.2247 -6.39861 
2379 149 3 1.008 0.03 22.274 3.37005 2.59027 22.274 52.5524 2.59027 0 1 0 0.00388851 -0.0354231 -0.00134819 2.72113 10.0558 -2.78194 
2373 149 2 12.01 0.11 21.4434 3.47699 3.27583 21.4434 52.6593 3.27583 0 1 0 -0.000114074 0.00563328 -0.00794677 -6.40895 -41.8066 18.5454 
2380 149 3 1.008 0.03 20.5061 3.32654 2.73103 20.5061 52.5089 2.73103 0 1 0 0.0138031 -0.0177255 -0.0172144 4.35168 0.787575 -1.54084 
2381 149 3 1.008 0.03 21.3826 4.42175 3.76536 21.3826 53.6041 3.76536 0 1 0 0.0133962 0.0089825 -0.00816412 4.14257 18.6216 1.30507 
2369 149 1 16 -0.4 21.5863 2.42594 4.27438 21.5863 51.6083 4.27438 0 1 0 -0.00461267 0.000997227 0.00505467 -20.7823 -11.0584 -25.8873 
2375 149 3 1.008 0.03 23.3853 3.01168 4.8497 23.3853 52.194 4.8497 0 1 0 -0.00358532 -0.0194706 -0.0160001 2.44584 4.30108 1.8563 
2371 149 2 12.01 0.14 22.4352 2.79892 5.31567 22.4352 51.9813 5.31567 0 1 0 0.00179714 -0.00543036 0.0113156 23.5159 2.14443 22.6785 
2376 149 3 1.008 0.03 22.073 3.70601 5.81543 22.073 52.8884 5.81543 0 1 0 0.0178201 0.0028027 0.00411696 4.60673 -5.95206 -5.93072 
8285 518 3 1.008 0.03 19.4759 2.70639 5.19605 19.4759 51.8887 5.19605 0 1 0 0.0025453 0.0111299 -0.0178759 -21.8924 1.7936 21.5657 
5249 329 1 16 -0.4 18.4121 4.43425 3.88892 -30.7703 53.6166 3.88892 -1 1 0 0.000242986 0.000250431 0.00106268 10.5763 -42.8152 -6.11145 
2372 149 2 12.01 0.14 22.6912 1.6515 6.34216 22.6912 50.8338 6.34216 0 1 0 0.00168194 0.00321018 0.00233946 -19.0122 -4.50248 -52.2988 
8283 518 3 1.008 0.03 17.8496 2.02806 5.67903 17.8496 51.2104 5.67903 0 1 0 0.00785882 0.00339878 -0.0235641 11.1094 -3.48826 -0.314762 
5267 330 2 12.01 0.14 22.9471 7.40717 6.99207 72.1294 -41.7752 -42.1903 1 -1 -1 -0.000460641 -1.60562e-05 -0.00577539 -36.9996 -31.3561 7.14176 
5905 370 1 16 -0.4 21.7249 1.46051 0.88332 21.7249 50.6429 0.88332 0 1 0 0.00272082 0.00183656 -0.00339061 -9.14486 25.4172 -13.8081 
5264 329 3 1.008 0.03 21.7966 6.76004 0.931875 -27.3857 55.9424 0.931875 -1 1 0 -0.0133776 0.0115914 -0.00583422 -3.24997 0.229752 3.44432 
5250 329 1 16 -0.4 20.3519 6.15764 2.30782 -28.8305 55.34 2.30782 -1 1 0 0.00741021 0.0052915 0.00105686 2.4565 -13.4172 -4.83673 
5254 329 2 12.01 0.11 20.8316 7.0644 1.35448 -28.3507 56.2467 1.35448 -1 1 0 -0.00128355 -0.00158025 -0.0116136 -9.24456 35.0805 -22.0105 
5252 329 2 12.01 0.14 19.0355 6.47451 2.6709 -30.1469 55.6569 2.6709 -1 1 0 0.00202976 0.00189672 -0.00242375 -26.088 -6.92509 -9.94708 
5276 330 3 1.008 0.03 22.0402 7.53535 4.49724 71.2225 -41.647 -44.6851 1 -1 -1 -0.0193793 0.00946823 -0.00381912 -3.25717 7.99291 10.6537 
9766 612 6 16 -0.53 17.7867 1.30983 1.21617 -31.3957 50.4922 1.21617 -1 1 0 -0.00186095 -0.00410964 0.000977347 22.4741 -13.1609 18.35 
5263 329 3 1.008 0.03 20.9226 8.10018 1.78868 -28.2598 57.2825 1.78868 -1 1 0 0.0336339 0.0246172 0.0154648 3.92777 -23.0768 -7.64764 
5258 329 3 1.008 0.03 19.0365 7.53412 2.77787 -30.1458 56.7165 2.77787 -1 1 0 -0.0194823 -0.00303255 0.000611616 -7.21394 16.6872 15.346 
5272 330 3 1.008 0.03 23.4424 8.27063 7.36819 72.6247 -40.9117 -41.8142 1 -1 -1 -0.0145599 0.0240563 -0.0160832 13.0877 12.0918 4.83069 
5262 329 3 1.008 0.03 20.0874 7.1757 0.520576 -29.0949 56.3581 0.520576 -1 1 0 0.0117292 0.00427907 0.00534324 17.5705 -5.75153 12.6116 
5265 330 1 16 -0.4 21.6491 7.78808 6.55743 70.8315 -41.3943 -42.6249 1 -1 -1 -0.00223505 -0.00126584 -0.00153985 1.39139 -2.86753 -15.6895 
1421 89 3 1.008 0.03 18.5606 7.09956 6.80313 -30.6217 56.2819 6.80313 -1 1 0 0.0184943 0.0140299 0.00768303 4.49704 5.44435 1.11259 
10475 686 9 24.305 2 21.1543 0.565368 4.0958 21.1543 49.7477 4.0958 0 1 0 0.00373636 -0.000652085 0.00294294 0.803584 -7.67235 -6.10241 
5907 370 2 12.01 0.14 22.67 0.526468 0.548113 22.67 49.7088 0.548113 0 1 0 -0.0050213 0.0044047 -0.00348883 -24.3268 -32.0092 2.93931 
5269 330 2 12.01 0.11 21.6014 8.25856 5.2129 70.7837 -40.9238 -43.9695 1 -1 -1 0.00521966 0.00252755 0.0067845 28.9447 -30.1547 0.491962 
5277 330 3 1.008 0.03 20.6702 8.50404 4.81462 69.8525 -40.6783 -44.3677 1 -1 -1 0.00677337 -0.00441725 0.0126 -35.5371 2.39855 -1.14337 
2377 149 3 1.008 0.03 23.6817 1.73576 6.7495 23.6817 50.9181 6.7495 0 1 0 0.0283183 0.00217258 -0.00794061 10.4005 -3.12904 7.76865 
9767 612 6 16 -0.53 19.6926 0.490167 2.66021 -29.4897 49.6725 2.66021 -1 1 0 -0.000188166 -0.00636271 0.00106931 -27.5338 0.021297 3.32425 
10136 637 7 12.01 0.35 24.9229 6.62388 2.89565 -24.2595 55.8062 2.89565 -1 1 0 0.00433927 -0.0048347 -0.00463302 27.2971 -16.1026 6.39437 
8284 518 3 1.008 0.03 19.1636 2.17772 6.94434 19.1636 51.3601 6.94434 0 1 0 0.00916334 0.00417612 -0.0142612 -2.66891 -3.76545 -29.5536 
5912 370 3 1.008 0.03 23.6221 0.8872 0.462466 23.6221 50.0695 0.462466 0 1 0 0.00800092 -0.00613552 -0.00273673 42.3412 22.2553 -4.08322 
5280 330 3 1.008 0.03 20.3452 5.57353 6.97633 69.5276 -43.6088 -42.206 1 -1 -1 0.0179684 -0.00401661 -0.012324 2.93692 -10.6869 9.64917 
5918 370 3 1.008 0.03 24.2552 0.800646 4.19844 24.2552 49.983 4.19844 0 1 0 -0.00366076 0.00810868 -0.00552713 -0.736249 3.92356 13.3635 
5910 370 2 12.01 0.11 24.0266 0.558222 3.18465 24.0266 49.7406 3.18465 0 1 0 0.00715908 -0.00347151 -0.00769603 16.1735 -21.8865 -12.6946 
10131 636 8 19 -0.16 5.45363 8.61222 2.26964 5.45363 8.61222 51.452 0 0 1 -0.00194194 -0.00109789 -0.00486323 27.4558 -12.5899 13.469 
3651 229 2 12.01 0.14 0.762495 11.7292 3.42908 0.762495 60.9115 3.42908 0 1 0 -0.000930597 -0.00459006 0.00509882 -13.0615 -6.70926 -23.2007 
1019 64 3 1.008 0.03 1.20592 9.41172 6.19749 50.3883 -88.953 104.562 1 -2 2 -0.0172827 0.0075988 0.0187871 7.76635 9.60835 -10.7075 
2421 152 2 12.01 0.11 2.74974 8.80826 1.92109 -144.797 57.9906 100.286 -3 1 2 -0.00150584 -0.00418449 0.00142327 -4.8274 66.6394 2.93569 
2429 152 3 1.008 0.03 1.7966 8.84004 2.53314 -145.75 58.0224 100.898 -3 1 2 0.0024404 -0.00677989 -0.0268694 30.7593 -2.04628 -7.06192 
2428 152 3 1.008 0.03 3.64331 9.3646 2.37745 -143.904 58.547 100.742 -3 1 2 0.0264584 0.00883845 -0.0195976 -51.0942 -3.55886 -8.23074 
9852 618 8 19 -0.16 0.751146 13.4079 5.57392 49.9335 62.5902 5.57392 1 1 0 0.00193398 -0.00496511 0.00277666 0.506021 27.8731 17.2589 
8099 507 2 12.01 0.14 7.36153 15.5215 0.494559 56.5439 15.5215 98.8593 1 0 2 -0.000945516 0.003559 -0.00559978 -2.74207 -13.5658 -2.80579 
9849 618 6 16 -0.53 3.22475 14.6848 6.54359 52.4071 63.8671 6.54359 1 1 0 0.00102746 -0.00150308 -0.00494592 44.8125 -28.1561 19.4749 
10117 636 4 14.01 -0.66 7.30425 9.3814 4.63084 7.30425 9.3814 53.8132 0 0 1 0.00187044 0.000259438 -0.000175681 -28.2822 -14.936 -3.66089 
9851 618 7 12.01 0.35 0.717118 14.5044 6.37457 49.8995 63.6867 6.37457 1 1 0 0.000774976 0.000760529 -0.00241699 11.3471 -37.7052 -35.509 
3662 229 3 1.008 0.03 4.43646 12.4353 2.09998 4.43646 61.6176 2.09998 0 1 0 -0.0251136 -0.00110538 -0.025214 -12.1899 3.47015 -16.2178 
3654 229 2 12.01 0.11 3.6186 12.4415 1.3353 3.6186 61.6239 1.3353 0 1 0 0.000801591 -0.00363638 0.000667203 -5.79173 -3.58299 8.27744 
3658 229 3 1.008 0.03 3.02113 11.5475 3.51985 3.02113 60.7298 3.51985 0 1 0 -0.0144611 0.00267793 -0.00409899 -8.79092 -7.24019 0.692542 
3652 229 2 12.01 0.14 2.22065 12.2458 3.25586 2.22065 61.4282 3.25586 0 1 0 0.00109406 0.00233748 -0.00206377 -7.4147 13.783 -6.88057 
3657 229 3 1.008 0.03 2.36082 13.0956 3.9291 2.36082 62.278 3.9291 0 1 0 0.0300589 0.0164993 -0.00927628 1.9854 -3.07921 -0.509724 
9857 618 6 16 -0.53 1.0465 15.2415 2.47067 50.2289 64.4238 2.47067 1 1 0 -0.00669296 0.0135476 0.000821789 -6.04395 13.6994 8.38916 
3650 229 1 16 -0.4 2.3369 12.7788 1.90526 2.3369 61.9611 1.90526 0 1 0 -0.00975472 0.00402238 0.00368546 2.52811 -2.80305 9.79171 
9855 618 5 32.06 1.02 1.04597 16.1986 3.5785 50.2283 65.3809 3.5785 1 1 0 -0.000778513 0.000535796 0.000446074 19.1754 7.26739 -10.2862 
9847 618 4 14.01 -0.66 2.18757 15.8278 4.57755 51.3699 65.0102 4.57755 1 1 0 0.00263821 -0.00314192 -0.00290244 8.62371 -11.981 16.8472 
10119 636 6 16 -0.53 5.56081 11.1163 5.37564 5.56081 11.1163 54.558 0 0 1 -0.000271366 -7.2382e-05 -0.000877613 -19.3018 2.67756 10.3856 
10118 636 5 32.06 1.02 6.92683 10.8205 5.09394 6.92683 10.8205 54.2763 0 0 1 0.00144285 -0.00421231 4.11495e-05 34.2697 10.5934 -36.4664 
9848 618 5 32.06 1.02 2.18627 15.5397 6.14852 51.3686 64.7221 6.14852 1 1 0 0.00725052 -0.00107093 -0.000517201 -56.5797 62.2321 -38.5073 
10123 636 8 19 -0.16 7.06979 13.0174 3.5783 7.06979 13.0174 52.7607 0 0 1 -0.00276747 -0.00270328 0.00126312 6.72013 -6.05015 -2.82537 
10121 636 7 12.01 0.35 7.20554 11.6964 3.46599 7.20554 11.6964 52.6483 0 0 1 -0.000266003 0.00051097 0.00222992 -37.4275 -16.6901 4.31742 
10120 636 6 16 -0.53 7.98951 11.3979 5.88482 7.98951 11.3979 55.0672 0 0 1 -0.0017533 -0.00500007 -0.00418475 -10.7886 3.48838 11.5092 
8101 507 2 12.01 0.11 7.24261 16.6739 2.6376 56.425 16.6739 101.002 1 0 2 -0.0101502 -0.0014198 -0.000867483 29.7749 12.1541 -13.1339 
10124 636 8 19 -0.16 6.3474 11.2982 2.49054 6.3474 11.2982 51.6729 0 0 1 0.00156364 0.000357892 -0.000532856 19.4998 6.23441 23.1163 
8109 507 3 1.008 0.03 6.20179 16.4108 2.68407 55.3841 16.4108 101.049 1 0 2 0.00276501 0.011027 0.00954674 -10.8533 -1.95816 0.573968 
2859 179 3 1.008 0.03 7.19033 15.2158 5.92493 7.19033 15.2158 55.1073 0 0 1 -0.0100252 0.0167094 -0.0265256 -9.29921 -3.8157 9.94742 
9850 618 6 16 -0.53 1.84972 16.6954 6.94861 51.0321 65.8777 6.94861 1 1 0 -0.00669321 -0.00154882 0.00471413 14.908 -5.22703 3.4068 
2853 179 2 12.01 0.11 6.74265 15.1184 6.93757 6.74265 15.1184 56.1199 0 0 1 0.00163711 0.00789778 0.00384551 12.3677 34.6738 -37.2889 
8107 507 3 1.008 0.03 7.74957 16.3669 3.57438 56.9319 16.3669 101.939 1 0 2 0.00331067 -0.00264768 -0.00491099 -11.7671 14.1601 -4.32764 
8097 507 1 16 -0.4 7.98117 15.9151 1.68426 57.1635 15.9151 100.049 1 0 2 0.00188427 -0.000638028 0.0025503 2.78708 -6.40487 17.608 
3663 229 3 1.008 0.03 3.4896 11.4229 0.926207 3.4896 60.6053 0.926207 0 1 0 -0.0280501 -0.00255501 -0.020577 9.69895 22.7055 7.55258 
2860 179 3 1.008 0.03 6.35071 14.1585 6.95944 6.35071 14.1585 56.1418 0 0 1 0.00932409 0.0100536 0.00549362 -9.95668 -33.98 8.10578 
8104 507 3 1.008 0.03 6.3376 15.131 0.689803 55.52 15.131 99.0545 1 0 2 0.00139393 0.0200576 -0.00419287 13.0427 6.11679 -5.79738 
10122 636 8 19 -0.16 8.41634 11.4231 3.04279 8.41634 11.4231 52.2251 0 0 1 0.00486873 0.00116332 0.00198071 10.3528 7.54246 -11.3619 
2861 179 3 1.008 0.03 5.9147 15.8383 6.97574 5.9147 15.8383 56.1581 0 0 1 -0.00328102 0.012063 -0.0135305 0.867926 -4.72821 2.85586 
3656 229 3 1.008 0.03 0.592662 10.8048 2.87269 0.592662 59.9872 2.87269 0 1 0 0.0107373 0.0124521 0.0171042 6.4557 2.45175 -3.64533 
3664 229 3 1.008 0.03 3.87463 13.136 0.515453 3.87463 62.3183 0.515453 0 1 0 0.00258599 -0.0230566 -0.0107302 0.584912 -7.13584 8.90059 
10466 677 9 24.305 2 0.674977 13.6682 1.31954 0.674977 62.8506 1.31954 0 1 0 -0.000940157 -0.000295438 -0.00058837 6.36152 -11.5821 -16.4352 
2417 152 1 16 -0.4 2.41985 9.40103 0.615828 -145.127 58.5834 98.9805 -3 1 2 0.00160058 -0.000477591 0.00288128 10.6464 -20.6918 32.8617 
3655 229 3 1.008 0.03 0.454271 11.3954 4.4213 0.454271 60.5777 4.4213 0 1 0 -0.0152066 -0.0159441 0.0186676 8.67739 9.03862 5.57399 
7807 488 3 1.008 0.03 14.4215 11.3749 0.926421 63.6039 11.3749 0.926421 1 0 0 -0.0146788 0.00946765 0.00962429 -17.5266 -9.66324 -11.5607 
2252 141 3 1.008 0.03 9.59191 9.22402 2.67073 9.59191 9.22402 51.8531 0 0 1 0.00240775 0.000403297 0.025158 8.37988 -26.059 4.20056 
4954 310 3 1.008 0.03 10.2235 15.8573 2.37013 59.4058 15.8573 2.37013 1 0 0 0.000205257 -0.0152937 0.0111431 7.56874 5.73074 -19.7947 
4014 251 3 1.008 0.03 14.8045 9.13073 6.49224 63.9868 58.3131 154.039 1 1 3 0.0127092 0.0127359 0.00215955 14.4754 0.560373 -24.0447 
4948 310 2 12.01 0.14 10.728 15.1124 1.72883 59.9104 15.1124 1.72883 1 0 0 -0.00483052 -0.00129677 -0.00630583 -13.3396 -13.4002 -16.86 
7808 488 3 1.008 0.03 12.6632 11.2691 1.45266 61.8455 11.2691 1.45266 1 0 0 0.0147465 -0.0162975 0.00599571 -0.641326 -11.547 15.6604 
10155 638 5 32.06 1.02 16.2344 9.38527 3.0685 16.2344 9.38527 52.2508 0 0 1 -0.00190854 -0.00218614 -0.00139379 38.1369 9.29133 32.9664 
7794 488 1 16 -0.4 13.4127 13.1379 1.05975 62.595 13.1379 1.05975 1 0 0 -0.00131417 0.00140291 -0.0035984 12.4635 -5.84532 -31.7062 
7797 488 2 12.01 0.11 16.0037 15.8507 2.52333 65.186 15.8507 2.52333 1 0 0 0.00810845 0.00302488 0.00459139 -9.53051 45.7067 -11.4348 
7793 488 1 16 -0.4 15.0002 14.9827 1.95248 64.1825 14.9827 1.95248 1 0 0 0.0030473 0.000305859 -0.00948674 -7.64115 15.7938 18.33 
4946 310 1 16 -0.4 12.1433 15.3902 1.73609 61.3257 15.3902 1.73609 1 0 0 -0.000649599 0.00148422 -0.00865795 -0.540907 -7.02663 12.9588 
4952 310 3 1.008 0.03 9.64759 14.08 3.32423 58.8299 14.08 3.32423 1 0 0 -0.00709411 0.0270539 -0.0241285 -6.08603 -0.85453 -0.76342 
4956 310 3 1.008 0.03 11.9075 11.4805 3.93876 61.0898 11.4805 3.93876 1 0 0 0.0153453 -0.0133472 0.0207039 1.45868 7.04088 -1.8021 
10150 638 6 16 -0.53 15.0851 11.3364 5.55365 15.0851 11.3364 54.736 0 0 1 -0.00139794 -0.00390811 -0.00195971 -5.11401 -1.66634 20.0141 
10147 638 4 14.01 -0.66 15.4877 10.7639 3.03019 15.4877 10.7639 52.2125 0 0 1 0.000507852 -0.00262961 0.00353616 -11.3186 25.6804 60.329 
4945 310 1 16 -0.4 11.58 13.403 3.18311 60.7623 13.403 3.18311 1 0 0 -0.00185383 0.000810658 -0.0076489 11.319 0.365038 -3.76467 
10454 665 9 24.305 2 13.2736 14.079 2.63578 62.4559 14.079 2.63578 1 0 0 -0.00266875 0.00120533 -0.0041305 7.64618 34.1963 23.8429 
10148 638 5 32.06 1.02 15.3079 11.8298 4.2429 15.3079 11.8298 53.4252 0 0 1 0.00112 0.00127385 -0.000486829 18.7881 -38.2068 -90.3711 
9826 616 6 16 -0.53 13.292 15.3664 4.29117 62.4744 15.3664 4.29117 1 0 0 -0.000322674 -0.000272235 0.000434108 -15.8818 -7.3808 3.18564 
9825 616 5 32.06 1.02 12.5432 16.2993 5.12638 61.7255 16.2993 5.12638 1 0 0 0.000899406 0.000767638 -0.00343476 33.1187 1.62732 -20.8281 
4955 310 3 1.008 0.03 10.2866 12.044 4.11653 59.4689 12.044 4.11653 1 0 0 0.0123293 0.0051536 0.00267946 9.85679 3.90343 4.36688 
10149 638 6 16 -0.53 14.4684 12.9017 3.75007 14.4684 12.9017 52.9324 0 0 1 0.00354964 -0.00299626 -0.00518565 -11.1605 -1.35507 1.46875 
4949 310 2 12.01 0.11 11.3354 12.394 4.14539 60.5177 12.394 4.14539 1 0 0 -0.00474933 -0.00124885 -0.00126307 -14.0415 -24.3414 23.7843 
4957 310 3 1.008 0.03 11.5664 12.6732 5.20494 60.7488 12.6732 5.20494 1 0 0 0.0445095 0.0349709 0.0206353 0.259121 -0.237695 -28.0445 
9827 616 6 16 -0.53 11.3925 15.8046 5.8019 60.5749 15.8046 5.8019 1 0 0 0.00224664 0.0014217 0.00739496 -20.4247 -6.31781 4.47274 
4947 310 2 12.01 0.14 10.3769 13.8301 2.55543 59.5593 13.8301 2.55543 1 0 0 0.00335806 0.0037655 -0.00686484 20.5392 27.9275 -8.19632 
4951 310 3 1.008 0.03 9.98419 13.0716 1.91959 59.1665 13.0716 1.91959 1 0 0 0.00928068 -0.00242013 0.0160067 -7.89927 -13.258 -8.01622 
9830 616 8 19 -0.16 14.0994 15.6736 7.12352 63.2817 15.6736 7.12352 1 0 0 0.000713717 0.000571844 -0.00154375 -4.20016 1.68233 -2.51267 
9612 602 8 19 -0.16 10.5841 13.2924 6.86517 59.7664 62.4748 56.0475 1 1 1 -0.00206876 -0.00366104 -0.000616502 -6.64214 2.74728 0.614889 
975 61 3 1.008 0.03 10.8658 9.07879 7.01605 10.8658 9.07879 56.1984 0 0 1 0.0120325 -0.0128724 0.013751 -6.3297 -17.6842 -17.4889 