ITEM: TIMESTEP
400000
ITEM: NUMBER OF ATOMS
10479
ITEM: BOX BOUNDS pp pp pp
4.0882558190751794e-01 4.9591174418091420e+01
4.0882558190751794e-01 4.9591174418091420e+01
4.0882558190751794e-01 4.9591174418091420e+01
ITEM: ATOMS id mol type mass q x y z xu yu zu ix iy iz vx vy vz fx fy fz 
1058 67 1 16 -0.4 1.55446 3.94252 1.2157 1.55446 3.94252 50.3981 0 0 1 -0.00893687 -0.00256182 0.00537471 12.1802 1.40748 14.3 
1827 115 2 12.01 0.14 5.54445 4.01051 5.14769 5.54445 4.01051 -142.399 0 0 -3 -0.00265107 -0.000807678 0.00129552 -16.4422 5.15463 3.46621 
1825 115 1 16 -0.4 6.20376 5.206 5.51227 6.20376 5.206 -142.035 0 0 -3 -0.00232385 0.000625979 -0.00349462 13.1457 -10.2181 5.22352 
1062 67 2 12.01 0.11 2.11947 3.77408 2.53928 2.11947 3.77408 51.7216 0 0 1 0.00384839 0.0018411 -0.000637019 -2.06023 -76.7538 -33.383 
1072 67 3 1.008 0.03 1.36475 4.08052 3.26662 1.36475 4.08052 52.449 0 0 1 -0.0101284 0.00988418 -0.0241823 8.52839 0.318321 7.64685 
1070 67 3 1.008 0.03 2.34978 2.61495 2.61448 2.34978 2.61495 51.7968 0 0 1 -0.00200385 -0.017179 0.00035925 -15.1452 68.2272 1.341 
5678 355 3 1.008 0.03 7.82702 1.7137 2.67908 7.82702 247.625 2.67908 0 5 0 0.0147971 0.00764956 -0.00310449 6.55462 -17.2457 -3.78179 
1071 67 3 1.008 0.03 3.09691 4.23591 2.62535 3.09691 4.23591 51.8077 0 0 1 0.00893285 -0.0325834 0.00735917 -1.72156 10.9226 5.67394 
1832 115 3 1.008 0.03 4.93226 4.1567 4.24612 4.93226 4.1567 -143.301 0 0 -3 -0.00986648 -0.0136958 -0.0151296 5.25583 5.17916 4.32069 
1828 115 2 12.01 0.14 6.54926 2.91083 4.83816 6.54926 2.91083 -142.709 0 0 -3 0.00381478 -0.00568916 0.00240379 -4.07246 6.28879 32.6177 
1831 115 3 1.008 0.03 4.82135 3.75273 5.92269 4.82135 3.75273 -141.624 0 0 -3 0.0238602 -0.00488152 -0.0270222 4.53551 -7.90101 0.950349 
6343 397 3 1.008 0.03 7.3981 8.41344 2.9891 7.3981 57.5958 -46.1933 0 1 -1 0.0356264 0.0115969 0.0140318 3.19988 10.4601 -8.60267 
1834 115 3 1.008 0.03 7.25498 3.3719 4.18874 7.25498 3.3719 -143.358 0 0 -3 -0.017662 0.0270787 0.00649986 17.7731 -1.29413 -10.5243 
5880 368 3 1.008 0.03 3.85809 8.53661 4.44724 200.587 8.53661 -44.7351 4 0 -1 -0.00267641 0.00467744 0.0132885 -6.97249 -13.2331 -7.92793 
6352 397 3 1.008 0.03 3.65292 7.40985 1.60245 3.65292 56.5922 -47.5799 0 1 -1 0.0118507 0.00171282 4.68072e-05 -23.375 21.3994 25.2042 
1833 115 3 1.008 0.03 5.96389 2.21675 4.29659 5.96389 2.21675 -143.25 0 0 -3 -0.0135303 -0.0113409 -0.0225031 -3.18389 -22.4039 -12.915 
6338 397 1 16 -0.4 5.71778 7.39677 1.47746 5.71778 56.5791 -47.7049 0 1 -1 -0.00203959 0.00356454 -0.00413246 5.58021 -1.3866 1.99057 
2474 155 3 1.008 0.03 1.86877 1.17206 0.745133 1.86877 148.719 0.745133 0 3 0 0.0190413 0.0233715 -0.00990943 -4.70431 7.3325 12.5512 
1065 67 3 1.008 0.03 1.92194 5.96768 1.35761 1.92194 5.96768 50.54 0 0 1 -0.00205889 0.0136404 -0.0114327 21.561 10.133 -5.17395 
6342 397 2 12.01 0.11 4.41836 6.95349 1.08217 4.41836 56.1358 -48.1002 0 1 -1 0.0030815 0.0049685 -0.00634876 10.561 -53.9843 -11.1854 
1060 67 2 12.01 0.14 1.21136 5.29492 0.953779 1.21136 5.29492 50.1361 0 0 1 0.00509361 0.00739658 -0.00267755 -15.6285 -6.66698 7.16713 
1839 115 3 1.008 0.03 8.53286 0.833202 6.52157 8.53286 0.833202 -141.025 0 0 -3 0.0228581 0.0110508 0.00317272 14.6419 -12.2644 25.9977 
5670 355 2 12.01 0.11 8.44402 0.856822 2.32292 8.44402 246.769 2.32292 0 5 0 0.0115712 0.00116462 0.00624997 18.398 -10.4445 27.7859 
1837 115 3 1.008 0.03 5.01894 6.63248 4.81107 5.01894 6.63248 -142.736 0 0 -3 0.0192885 0.00265088 -0.0159624 -8.13932 -1.62618 7.60237 
1826 115 1 16 -0.4 7.13021 2.28785 6.01622 7.13021 2.28785 -141.531 0 0 -3 0.00146947 0.00501938 -0.00231971 -4.07594 3.25839 -8.69888 
1830 115 2 12.01 0.11 8.04534 1.2339 5.69282 8.04534 1.2339 -141.854 0 0 -3 -0.00480151 0.00348996 -0.00485076 -27.1658 37.9957 -39.7096 
1829 115 2 12.01 0.11 5.32447 6.2557 5.79496 5.32447 6.2557 -141.752 0 0 -3 -0.00169039 -0.00204629 0.00722449 11.4467 41.0337 11.4887 
8959 560 3 1.008 0.03 1.04015 8.35482 2.45541 148.587 8.35482 100.82 3 0 2 0.0121647 0.00287637 0.00123753 -12.354 1.97135 9.69959 
4232 265 3 1.008 0.03 8.31377 5.1503 2.25161 8.31377 5.1503 -46.9307 0 0 -1 -0.00502193 -0.0250715 -0.040697 -9.55145 10.4709 -2.845 
920 58 3 1.008 0.03 2.0259 0.477921 2.79471 100.391 0.477921 2.79471 2 0 0 -0.0270735 -0.00427726 -0.0140374 10.3121 -16.5884 -5.00952 
1835 115 3 1.008 0.03 4.46 6.00175 6.44772 4.46 6.00175 -141.099 0 0 -3 0.00799541 -0.00978199 -0.0185318 10.8191 1.42578 -10.5435 
922 58 3 1.008 0.03 3.28963 1.60212 4.79779 101.654 1.60212 4.79779 2 0 0 0.0026808 -0.00428642 -0.0213709 -1.67398 -46.3948 0.414926 
1840 115 3 1.008 0.03 7.48854 0.473923 5.1513 7.48854 0.473923 -142.396 0 0 -3 -0.00141956 -0.000540513 0.00701117 2.95276 -7.3984 1.42566 
5874 368 1 16 -0.4 1.35647 7.95199 5.0696 198.086 7.95199 -44.1127 4 0 -1 0.00156329 -0.00350366 -0.00588489 9.21633 -0.348912 -0.570339 
916 58 2 12.01 0.14 3.1711 0.45402 4.69411 101.536 0.45402 4.69411 2 0 0 -0.00548078 -0.000187984 0.00202786 -9.35962 71.627 -28.3395 
925 58 3 1.008 0.03 0.77991 1.03744 6.24556 99.1446 1.03744 6.24556 2 0 0 0.0243957 -0.0117945 0.00307505 6.18711 8.91237 3.21005 
913 58 1 16 -0.4 0.859885 1.23583 4.06163 99.2246 1.23583 4.06163 2 0 0 0.000589473 0.00831874 -0.00229351 -27.4136 -18.4061 70.5455 
5674 355 3 1.008 0.03 5.96612 0.565587 1.48573 5.96612 246.477 1.48573 0 5 0 -0.033021 0.00389779 -0.00540479 3.516 20.6537 13.5156 
6351 397 3 1.008 0.03 4.26044 5.82526 1.21392 4.26044 55.0076 -47.9684 0 1 -1 0.00537465 0.000358531 -0.0179407 13.6086 37.9606 1.73143 
5881 368 3 1.008 0.03 2.58218 7.95491 6.70293 199.312 7.95491 -42.4794 4 0 -1 0.0178617 -0.00518695 0.016949 8.05933 -17.286 15.8448 
1836 115 3 1.008 0.03 5.90377 7.11909 6.28013 5.90377 7.11909 -141.267 0 0 -3 -0.000641403 -0.00952554 0.00408017 -18.886 -31.8572 -14.2116 
928 58 3 1.008 0.03 4.30942 0.830889 7.05578 102.674 0.830889 7.05578 2 0 0 -0.0288924 -0.0290783 -0.0152923 7.73614 18.9271 6.15307 
1287 81 3 1.008 0.03 16.1913 0.940696 7.1651 16.1913 50.123 7.1651 0 1 0 -0.0226847 0.0101087 -0.00305123 -7.7665 -6.35541 11.9082 
5679 355 3 1.008 0.03 9.31552 0.712426 3.06439 9.31552 246.624 3.06439 0 5 0 -0.00991785 0.0229195 -0.0160968 -31.1158 5.94602 -30.0559 
1290 81 3 1.008 0.03 15.2443 0.978832 4.83599 15.2443 50.1612 4.83599 0 1 0 0.00550577 0.0177665 0.00583018 11.5193 -4.4354 0.9405 
4228 265 2 12.01 0.14 9.74167 4.95882 3.83527 9.74167 4.95882 -45.3471 0 0 -1 0.000471221 -0.00315147 -0.000205218 -27.0776 -7.81928 9.55777 
4233 265 3 1.008 0.03 8.88748 5.4013 4.30422 8.88748 5.4013 -44.8781 0 0 -1 0.0145891 0.0150104 0.0161735 -5.91634 11.8539 11.5668 
4238 265 3 1.008 0.03 11.9094 5.09705 5.86179 11.9094 5.09705 -43.3206 0 0 -1 0.00797238 -0.00650277 -0.0216955 7.20701 -16.5854 -3.05148 
4227 265 2 12.01 0.14 9.37624 5.01752 2.33777 9.37624 5.01752 -46.8446 0 0 -1 -0.00559703 0.00432859 -0.00224158 27.4783 -12.4408 9.96886 
4229 265 2 12.01 0.11 10.9936 3.50525 1.60037 10.9936 3.50525 -47.582 0 0 -1 -5.23949e-05 0.00370088 -0.00413903 -34.5062 10.9586 12.2237 
4234 265 3 1.008 0.03 9.71017 3.94763 4.25543 9.71017 3.94763 -44.9269 0 0 -1 0.0167978 0.0128419 -0.00149627 6.67435 0.918184 -4.69168 
4230 265 2 12.01 0.11 11.185 5.81822 5.55264 11.185 5.81822 -43.6297 0 0 -1 0.000239877 0.0047032 0.00643316 25.7258 -13.6232 1.1424 
4239 265 3 1.008 0.03 11.7009 6.71442 5.86044 11.7009 6.71442 -43.3219 0 0 -1 -0.00593488 -0.00129758 0.0263118 -7.12147 12.9704 -3.16265 
4226 265 1 16 -0.4 10.9008 5.66887 4.19078 10.9008 5.66887 -44.9916 0 0 -1 0.00403867 -0.00494747 -0.00149757 6.57074 7.53458 -20.6107 
4240 265 3 1.008 0.03 10.3859 5.61916 6.16354 10.3859 5.61916 -43.0188 0 0 -1 -0.00188122 -0.0143056 0.0324872 -38.5073 -1.24574 24.0236 
1286 81 2 12.01 0.11 12.8908 1.64526 4.21727 12.8908 50.8276 4.21727 0 1 0 0.00141181 0.00191471 0.00261555 -24.4304 33.9399 -13.9103 
1296 81 3 1.008 0.03 11.8019 1.71927 4.18904 11.8019 50.9016 4.18904 0 1 0 0.00947819 -0.0146465 -0.00795577 0.194312 -10.7391 4.40136 
1294 81 3 1.008 0.03 13.11 2.66706 3.82679 13.11 51.8494 3.82679 0 1 0 0.0144547 -0.0280796 0.00343141 13.6416 -18.1604 11.2446 
9507 595 8 19 -0.16 14.4135 3.89496 2.14044 14.4135 53.0773 51.3228 0 1 1 -0.00629552 -0.00759157 -0.00726631 -14.6352 5.51673 7.50443 
1289 81 3 1.008 0.03 15.0491 2.53052 5.74053 15.0491 51.7129 5.74053 0 1 0 -0.00502799 0.0151147 -0.0087568 -4.63144 -23.7288 -6.352 
1284 81 2 12.01 0.14 14.7801 1.4424 5.69701 14.7801 50.6247 5.69701 0 1 0 -0.000575212 0.00488291 0.00446618 -60.9507 25.2332 9.18914 
1282 81 1 16 -0.4 13.3052 1.33617 5.51427 13.3052 50.5185 5.51427 0 1 0 -0.00806338 0.000750516 -0.0020684 50.2084 3.10413 16.3796 
1838 115 3 1.008 0.03 8.76184 1.69133 4.99745 8.76184 1.69133 -142.55 0 0 -3 -0.0137238 0.00976872 0.00906457 3.89853 -8.73999 8.27845 
4236 265 3 1.008 0.03 11.5477 3.68266 2.50439 11.5477 3.68266 -46.678 0 0 -1 -0.00192555 0.00713088 0.0185492 8.2575 -2.98617 6.29619 
4225 265 1 16 -0.4 9.57964 3.66185 1.86538 9.57964 3.66185 -47.317 0 0 -1 0.000981189 -0.00332633 0.000730647 32.1621 26.7907 -10.1171 
4231 265 3 1.008 0.03 9.95741 5.88205 1.87348 9.95741 5.88205 -47.3089 0 0 -1 0.0012825 0.0319574 -0.036233 -20.9409 -28.4586 2.14821 
1200 75 3 1.008 0.03 12.8062 6.57749 2.42919 -36.3761 6.57749 2.42919 -1 0 0 -0.00372657 0.00262108 0.0422187 -3.51397 -8.96637 -17.0913 
1190 75 2 12.01 0.11 12.6667 7.42557 3.05885 -36.5157 7.42557 3.05885 -1 0 0 0.00177092 -0.00296954 -0.00537189 38.7153 42.9572 50.1847 
1198 75 3 1.008 0.03 12.7644 7.05231 4.11995 -36.418 7.05231 4.11995 -1 0 0 -0.00166695 0.0141551 0.0196802 10.9916 15.9009 -33.8349 
4235 265 3 1.008 0.03 11.2822 4.29282 0.922579 11.2822 4.29282 -48.2598 0 0 -1 0.0190474 -0.0130262 -0.0220421 8.8839 -2.5934 -13.6799 
9508 595 8 19 -0.16 16.5133 4.2955 2.42811 16.5133 53.4778 51.6105 0 1 1 -0.0064115 -0.00212599 0.00857352 -21.3709 -4.93599 -11.449 
9506 595 7 12.01 0.35 15.6131 3.49665 1.8158 15.6131 52.679 50.9981 0 1 1 -0.00894442 0.00111781 -0.000296773 47.648 -10.2834 2.75739 
4415 276 3 1.008 0.03 16.1485 4.44543 6.11691 16.1485 53.6278 153.664 0 1 3 0.00227869 -0.00693175 0.0191997 7.40775 -11.2896 2.27621 
9509 595 8 19 -0.16 15.8349 2.31885 2.37318 15.8349 51.5012 51.5555 0 1 1 0.0061707 0.00712625 0.00165331 -14.1532 -4.55984 1.51107 
4406 276 2 12.01 0.11 15.5496 5.25204 5.75183 15.5496 54.4344 153.299 0 1 3 0.00615299 0.00237364 0.00834227 -11.7788 16.8529 30.0718 
4414 276 3 1.008 0.03 15.7661 5.38449 4.722 15.7661 54.5668 152.269 0 1 3 -0.0139122 -0.00991212 0.0122435 4.33936 3.27683 -19.3717 
4416 276 3 1.008 0.03 14.4882 4.94537 5.83972 14.4882 54.1277 153.387 0 1 3 0.00217178 -0.0286245 -0.0126549 10.3521 8.35976 1.89753 
4402 276 1 16 -0.4 15.9152 6.43517 6.50582 15.9152 55.6175 154.053 0 1 3 0.00789407 -0.00713234 0.00394035 -15.9119 -13.9446 21.9446 
1194 75 3 1.008 0.03 15.1468 8.07257 4.26726 -34.0355 8.07257 4.26726 -1 0 0 0.00930536 -0.0174408 0.0135796 -15.6069 -3.0543 -4.66552 
1188 75 2 12.01 0.14 14.9584 8.272 3.20109 -34.224 8.272 3.20109 -1 0 0 0.0105796 -0.00570328 -0.00185629 5.36295 -33.1286 6.21114 
1193 75 3 1.008 0.03 15.2266 7.35926 2.66442 -33.9558 7.35926 2.66442 -1 0 0 0.00915941 -0.00132438 -0.00643501 4.99744 1.71893 2.19557 
1186 75 1 16 -0.4 13.6163 8.52301 2.84687 -35.5661 8.52301 2.84687 -1 0 0 -0.00402171 -0.00511316 0.0017757 -23.4424 -10.1481 6.10026 
1199 75 3 1.008 0.03 11.6962 7.91598 3.03654 -37.4862 7.91598 3.03654 -1 0 0 -0.0139421 -0.0119569 -0.00786369 -5.7746 -12.0668 -10.2539 
5680 355 3 1.008 0.03 8.85859 1.18548 1.36317 8.85859 247.097 1.36317 0 5 0 -0.0265154 -0.0186414 -0.00113946 -0.907346 -5.75894 2.99684 
1295 81 3 1.008 0.03 13.1743 0.872956 3.5346 13.1743 50.0553 3.5346 0 1 0 0.0251094 0.0149513 0.0281882 6.36044 -7.15013 -12.3952 
1283 81 2 12.01 0.14 15.1031 0.803868 7.06804 15.1031 49.9862 7.06804 0 1 0 0.0081148 0.00829591 0.00521521 -0.673879 31.813 -25.6309 
4412 276 3 1.008 0.03 14.6415 8.4706 6.99392 14.6415 57.6529 154.541 0 1 3 -0.019202 -0.0124476 0.0300857 8.35044 24.5897 9.86122 
4237 265 3 1.008 0.03 11.2144 2.51599 1.25105 11.2144 2.51599 -47.9313 0 0 -1 -0.013794 0.00940633 0.00711951 4.32124 -8.34261 -8.98914 
8110 507 3 1.008 0.03 9.83969 8.19217 5.67956 59.022 8.19217 104.044 1 0 2 0.00147918 -0.0245711 -0.0121745 -14.1996 13.6034 19.1336 
1273 80 3 1.008 0.03 24.0468 0.972642 7.42056 24.0468 99.3373 7.42056 0 2 0 -0.00803116 -0.0176615 0.00894719 -2.44018 1.87033 -7.12488 
1278 80 3 1.008 0.03 24.3574 3.92768 7.30173 24.3574 102.292 7.30173 0 2 0 -0.00303764 0.0142228 0.0079117 -7.35364 -2.28566 -0.441672 
2964 186 2 12.01 0.14 20.1273 6.24875 6.86113 20.1273 202.978 -42.3212 0 4 -1 -0.00395465 -0.00375701 -0.00817111 22.9058 42.8285 34.4298 
9514 595 8 19 -0.16 16.8865 7.58456 0.912189 16.8865 56.7669 50.0945 0 1 1 0.00206078 -0.00174561 -0.000988665 18.1682 4.49563 41.935 
2968 186 3 1.008 0.03 20.4185 7.65552 5.31779 20.4185 204.385 -43.8646 0 4 -1 0.0227888 -0.00492764 -0.0262938 -17.0553 16.6511 -21.3506 
5051 316 3 1.008 0.03 18.4108 5.69314 2.73476 116.775 -43.4892 -95.6299 2 -1 -2 0.0134199 0.0278473 -0.00769291 -6.7261 5.12823 -10.8977 
8375 524 3 1.008 0.03 19.6194 2.22619 3.52748 117.984 100.591 3.52748 2 2 0 -0.0120675 -0.0148735 0.02133 4.95655 -1.98043 -1.64931 
5042 316 1 16 -0.4 22.284 4.25885 2.85744 120.649 -44.9235 -95.5073 2 -1 -2 0.00230061 -0.00564572 0.000570001 66.9587 -35.7933 -0.734762 
5046 316 2 12.01 0.11 23.6489 3.66933 2.54552 122.014 -45.513 -95.8192 2 -1 -2 0.00263815 -0.00238009 -0.00276827 -38.2827 29.044 51.0955 
5048 316 3 1.008 0.03 20.2855 5.6171 3.89855 118.65 -43.5653 -94.4661 2 -1 -2 0.00117799 0.00346973 0.00779462 -8.94912 -21.642 32.1785 
5041 316 1 16 -0.4 20.1974 5.752 1.89632 118.562 -43.4304 -96.4684 2 -1 -2 -0.00406032 0.00405414 -0.00174624 8.45627 4.56292 -8.19841 
5047 316 3 1.008 0.03 20.6941 7.09664 3.22964 119.059 -42.0857 -95.1351 2 -1 -2 -0.00900436 0.0130007 0.0202777 8.61672 26.9167 7.64778 
5049 316 3 1.008 0.03 22.7724 6.04863 2.14804 121.137 -43.1337 -96.2167 2 -1 -2 0.00401877 -0.0258656 0.0157171 16.4339 24.2638 -44.7202 
5044 316 2 12.01 0.14 22.3135 5.66071 2.96407 120.678 -43.5216 -95.4006 2 -1 -2 -0.00185296 -0.00345595 0.00242736 -48.2959 -25.7074 31.9879 
5043 316 2 12.01 0.14 20.8068 6.05645 3.1189 119.172 -43.1259 -95.2458 2 -1 -2 0.00572022 -0.00153783 -0.00171 44.7962 -0.42359 -41.5628 
5050 316 3 1.008 0.03 22.9057 5.96992 3.78646 121.27 -43.2124 -94.5782 2 -1 -2 -0.0244653 0.000176327 0.0105926 9.91552 1.6387 15.1699 
5054 316 3 1.008 0.03 23.5997 2.59039 2.61258 121.964 -46.592 -95.7521 2 -1 -2 -0.0145712 -0.0426712 0.00552547 -1.60348 -5.84548 -5.14521 
8376 524 3 1.008 0.03 18.041 2.53193 3.01201 116.406 100.897 3.01201 2 2 0 -0.00271198 -0.0135119 -0.00432261 -11.1851 7.64848 2.35818 
8371 524 2 12.01 0.14 18.5883 2.05394 3.80938 116.953 100.419 3.80938 2 2 0 -0.0123405 -0.000545284 -0.00130634 7.76124 -0.665961 4.07657 
8377 524 3 1.008 0.03 18.2534 3.73102 5.21216 116.618 102.096 5.21216 2 2 0 0.00407161 0.00713898 0.0355756 4.39261 -23.1884 -0.703086 
5052 316 3 1.008 0.03 18.7716 7.29411 2.17801 117.136 -41.8882 -96.1867 2 -1 -2 -0.00520685 -0.0087185 -0.00804975 7.22819 17.9644 1.99471 
8372 524 2 12.01 0.14 18.3201 2.60811 5.23196 116.685 100.973 5.23196 2 2 0 -0.0068862 0.00153328 -0.00475028 23.3146 21.1263 0.958826 
8378 524 3 1.008 0.03 17.3594 2.28424 5.60202 115.724 100.649 5.60202 2 2 0 0.0175552 -0.0285572 -0.0138085 -2.84778 -4.24185 0.989308 
5045 316 2 12.01 0.11 18.9096 6.2647 1.93451 117.274 -42.9176 -96.4302 2 -1 -2 -0.00173697 -0.00810226 -0.00464972 -31.4765 -29.0352 -0.382374 
8370 524 1 16 -0.4 19.3731 2.19329 6.15698 117.738 100.558 6.15698 2 2 0 -0.000204018 0.00150082 0.00699714 -11.4449 1.22916 -8.82199 
2965 186 2 12.01 0.11 23.2083 7.07544 6.76579 23.2083 203.805 -42.4166 0 4 -1 -0.00355957 -0.00565269 0.00164951 28.4994 18.0637 -8.92411 
2973 186 3 1.008 0.03 24.2655 6.99405 6.31202 24.2655 203.723 -42.8703 0 4 -1 -0.00860256 0.00159423 0.00198592 -47.561 -0.773482 15.8688 
2961 186 1 16 -0.4 22.223 7.05086 5.73003 22.223 203.78 -43.4523 0 4 -1 -0.00386291 0.00102667 0.00419277 -0.750717 1.72873 21.7618 
2971 186 3 1.008 0.03 23.1028 8.09643 7.22373 23.1028 204.826 -41.9586 0 4 -1 0.0186697 0.00219013 -0.00817492 11.1052 -22.4906 -2.12892 
8382 524 3 1.008 0.03 20.5514 3.55925 5.31004 118.916 101.924 5.31004 2 2 0 0.0167878 -0.0130548 -0.00979575 5.62512 27.5446 -13.8904 
8374 524 2 12.01 0.11 20.6863 2.6791 5.85916 119.051 101.044 5.85916 2 2 0 -9.10149e-05 0.00271559 0.000287714 -24.3765 -12.7453 1.4645 
8384 524 3 1.008 0.03 21.3181 2.04454 5.26724 119.683 100.409 5.26724 2 2 0 -0.00601407 -0.0168168 -0.0323724 1.11302 -12.9833 -6.00593 
8369 524 1 16 -0.4 18.2991 0.675723 3.81968 116.664 99.0404 3.81968 2 2 0 -0.00207885 -0.00167796 0.000118879 -9.08425 -0.585732 12.7785 
5055 316 3 1.008 0.03 23.834 3.97862 1.56753 122.199 -45.2037 -96.7972 2 -1 -2 -0.000768935 -0.0136948 -0.0130633 12.0462 1.62019 -32.3047 
8381 524 3 1.008 0.03 17.6038 0.479875 1.85326 115.968 98.8446 1.85326 2 2 0 0.00382112 0.0248499 0.00802749 -10.6194 7.23133 -5.56233 
5053 316 3 1.008 0.03 18.4039 6.08701 0.983021 116.769 -43.0953 -97.3817 2 -1 -2 -0.00290457 -0.00367637 0.00691832 3.97202 -4.88599 3.15509 
8383 524 3 1.008 0.03 21.1978 2.9154 6.75578 119.563 101.28 6.75578 2 2 0 -0.00198924 0.0234646 0.0267304 10.8823 3.74155 17.7993 
2967 186 3 1.008 0.03 20.9109 8.37323 6.871 20.9109 205.103 -42.3114 0 4 -1 0.0200316 0.0316966 -0.00634603 2.83157 -19.1365 -21.0875 
1280 80 3 1.008 0.03 24.9208 2.99049 5.94838 24.9208 101.355 5.94838 0 2 0 -0.018955 0.0175099 0.00855428 -8.73126 -22.0681 -29.1371 
2963 186 2 12.01 0.14 20.9346 7.45922 6.20233 20.9346 204.189 -42.98 0 4 -1 -0.00260682 0.000704569 -0.00234354 -2.12889 -31.7538 38.627 
2970 186 3 1.008 0.03 20.5367 5.2552 6.75017 20.5367 201.985 -42.4322 0 4 -1 -0.0034718 0.0365526 -0.0118648 -0.940398 -2.947 -15.4616 
2969 186 3 1.008 0.03 19.0744 6.35607 6.63015 19.0744 203.085 -42.5522 0 4 -1 0.015446 0.0373752 0.00936233 -5.24646 -9.32424 -6.50811 
5056 316 3 1.008 0.03 24.5601 3.96785 3.15818 122.925 -45.2145 -95.2065 2 -1 -2 0.0164141 0.0161398 0.0159845 -33.1111 -0.217287 -10.0072 
7966 498 3 1.008 0.03 21.2924 2.1221 0.701045 21.2924 51.3045 49.8834 0 1 1 -0.00875564 0.00209676 -0.0203586 -17.4136 7.33467 -33.715 
6340 397 2 12.01 0.14 6.06004 8.78313 1.30297 6.06004 57.9655 -47.8794 0 1 -1 -0.000814718 0.00238301 0.00271738 22.31 -16.8377 -24.7477 
6345 397 3 1.008 0.03 5.29333 9.33059 1.78707 5.29333 58.5129 -47.3953 0 1 -1 0.00265112 0.0124667 -0.00332291 -13.1032 10.2684 5.5202 
6339 397 2 12.01 0.14 7.41314 9.04502 2.0762 7.41314 58.2274 -47.1062 0 1 -1 0.000221116 -0.00491777 -0.00502807 -20.3724 -13.7915 -0.671474 
5876 368 2 12.01 0.14 2.27599 8.61092 5.93428 199.005 8.61092 -43.2481 4 0 -1 0.00646435 0.00696424 0.00621134 -36.6256 5.89422 -11.7892 
5875 368 2 12.01 0.14 3.45256 9.17739 5.20665 200.182 9.17739 -43.9757 4 0 -1 0.00159603 0.00778801 -0.000745675 18.385 6.4767 -12.9423 
6344 397 3 1.008 0.03 7.45982 10.0912 2.42446 7.45982 59.2735 -46.7579 0 1 -1 0.0104733 0.0058597 -0.0315215 -2.32709 -7.50031 -8.68988 
4971 311 3 1.008 0.03 5.51189 12.1494 1.05241 54.6942 -37.033 50.2348 1 -1 1 -0.00722545 0.00933571 -0.0127081 -9.53227 -6.47211 9.54463 
4305 270 1 16 -0.4 8.57048 13.1241 0.742322 8.57048 160.671 99.107 0 3 2 0.00162448 -0.00239456 0.00235898 13.7248 -6.96086 -20.5217 
1915 120 3 1.008 0.03 1.29668 16.599 2.37496 1.29668 65.7813 51.5573 0 1 1 -0.0181103 0.000455658 -0.00521161 -6.74067 2.847 -8.61213 
4973 311 3 1.008 0.03 4.3011 11.1716 2.01491 53.4834 -38.0108 51.1973 1 -1 1 -0.0117784 0.0227214 0.016896 10.952 -8.22284 18.5389 
8357 523 2 12.01 0.11 0.556645 12.6328 3.02732 98.9213 12.6328 101.392 2 0 2 -0.00790907 0.00224651 0.00577591 1.40568 8.48891 20.8733 
5883 368 3 1.008 0.03 5.77503 10.3476 7.19343 202.504 10.3476 -41.9889 4 0 -1 0.0118511 0.0131041 0.0205316 -22.4429 13.5055 -11.7845 
5884 368 3 1.008 0.03 5.20248 11.0721 5.67788 201.932 11.0721 -43.5045 4 0 -1 0.000670628 0.015309 -0.0132878 10.5852 19.0634 -25.1504 
5885 368 3 1.008 0.03 4.06234 10.9793 6.95673 200.792 10.9793 -42.2256 4 0 -1 0.0190276 0.0309252 0.00187852 -9.13779 10.6686 13.9718 
5877 368 2 12.01 0.11 4.89856 10.5087 6.49988 201.628 10.5087 -42.6825 4 0 -1 -0.000610861 0.00124169 0.00204614 22.5968 -39.2489 28.3528 
5879 368 3 1.008 0.03 3.24583 10.0895 4.64704 199.975 10.0895 -44.5353 4 0 -1 0.0304013 0.0300349 -0.021782 -1.69884 4.99939 6.36766 
5873 368 1 16 -0.4 4.52367 9.20628 6.11199 201.253 9.20628 -43.0704 4 0 -1 0.000835919 -0.00616192 0.00293387 7.10191 7.97247 1.20939 
8364 523 3 1.008 0.03 1.28374 13.159 2.38594 99.6484 13.159 100.751 2 0 2 0.010299 -0.0153278 -0.000924885 -9.56325 -6.77992 -1.50941 
4318 270 3 1.008 0.03 8.15223 12.1012 5.47895 8.15223 159.648 103.844 0 3 2 -0.0168281 0.00710441 0.00926122 12.6666 1.67451 24.3857 
4319 270 3 1.008 0.03 7.37255 10.7375 4.71337 7.37255 158.285 103.078 0 3 2 0.00842935 -0.0088452 -0.00907586 -18.2931 -4.73356 1.19929 
5818 364 3 1.008 0.03 3.13583 13.7477 5.01683 101.501 13.7477 5.01683 2 0 0 0.0202011 0.0354329 -0.00670694 -12.7121 -4.38609 -8.16056 
4307 270 2 12.01 0.14 8.24027 13.9911 1.76508 8.24027 161.538 100.13 0 3 2 0.00182262 6.26921e-05 0.00249036 -56.5662 38.6289 36.7745 
5816 364 3 1.008 0.03 5.29819 14.4434 4.29505 103.663 14.4434 4.29505 2 0 0 0.0136077 -0.00639304 0.0061312 34.5317 -34.7441 -27.7747 
4310 270 2 12.01 0.11 8.02575 11.5702 4.57588 8.02575 159.117 102.941 0 3 2 -0.00348047 0.00142151 -0.00294466 18.4919 10.0054 -23.0998 
4306 270 1 16 -0.4 7.64948 12.5614 3.66952 7.64948 160.108 102.034 0 3 2 -0.00280636 -0.000563186 0.000559498 -35.9417 -5.60163 -20.4807 
5810 364 1 16 -0.4 4.22939 13.9153 6.68745 102.594 13.9153 6.68745 2 0 0 -0.000279251 -0.00651414 -0.00289 -16.7925 -17.4472 44.0904 
5882 368 3 1.008 0.03 1.72308 9.40745 6.41505 198.452 9.40745 -42.7673 4 0 -1 -0.0281764 0.0195243 -0.000590598 2.31751 7.1326 5.26903 
8365 523 3 1.008 0.03 1.13293 12.0327 3.72108 99.4976 12.0327 102.086 2 0 2 -0.00406584 -0.00650435 -0.00591627 7.41678 0.0964145 2.03499 
4972 311 3 1.008 0.03 4.53195 12.9153 2.34856 53.7143 -36.267 51.5309 1 -1 1 -0.00344071 -0.0131115 0.0235282 -5.78929 -11.0395 -13.3385 
4312 270 3 1.008 0.03 7.11352 14.2675 1.80187 7.11352 161.815 100.167 0 3 2 0.00355649 -0.00409529 0.0112666 44.6639 -17.5994 -6.1089 
5812 364 2 12.01 0.14 3.64186 14.507 5.57835 102.007 14.507 5.57835 2 0 0 0.00216856 0.00813507 -0.00209229 19.2008 21.9413 -3.4881 
5817 364 3 1.008 0.03 2.96715 15.2026 6.07273 101.332 15.2026 6.07273 2 0 0 -0.0106756 0.00355972 0.0159641 -6.09918 12.2584 -22.2874 
5811 364 2 12.01 0.14 4.78141 15.1866 4.74207 103.146 15.1866 4.74207 2 0 0 0.00264474 -0.00422368 0.00525476 -28.6302 58.7853 60.5901 
5815 364 3 1.008 0.03 4.43218 15.9358 4.00513 102.797 15.9358 4.00513 2 0 0 0.0079822 0.00137265 -0.0277554 -0.882834 -17.5912 3.46221 
5809 364 1 16 -0.4 5.57841 15.9358 5.7209 103.943 15.9358 5.7209 2 0 0 -0.00115555 0.00144318 0.000116463 -13.3747 0.164207 -19.555 
4965 311 2 12.01 0.11 4.52971 12.1166 1.57032 53.7121 -37.0658 50.7527 1 -1 1 0.00731541 0.00698491 0.00742823 -5.2716 18.3598 -20.3758 
8112 507 3 1.008 0.03 8.375 8.74041 6.4203 57.5573 8.74041 104.785 1 0 2 0.00663818 -0.0127438 -0.000656799 -18.115 2.63852 8.84239 
5813 364 2 12.01 0.11 6.67123 16.6503 5.14885 105.036 16.6503 5.14885 2 0 0 -0.00936232 -0.000219365 -0.00336931 -7.41652 -32.1839 -59.5971 
5821 364 3 1.008 0.03 7.27713 15.8384 4.61926 105.642 15.8384 4.61926 2 0 0 -0.000261822 0.00679244 -0.0019183 -3.70129 32.063 24.6598 
4961 311 1 16 -0.4 3.47573 12.1977 0.593156 52.6581 -36.9846 49.7755 1 -1 1 -0.0102588 -0.00367045 0.00197246 11.0962 36.9762 52.6842 
5824 364 3 1.008 0.03 2.6332 12.8222 7.22068 100.998 12.8222 7.22068 2 0 0 -0.0175726 -0.000824612 0.00721512 -16.6367 -13.8261 -0.518543 
6337 397 1 16 -0.4 8.54764 8.67486 1.289 8.54764 57.8572 -47.8933 0 1 -1 -0.00155267 -0.00234934 -0.00087436 -1.86987 9.78921 17.1734 
9276 580 3 1.008 0.03 15.4215 14.2798 1.6015 113.786 63.4621 -47.5808 2 1 -1 0.0121963 0.0029994 0.0157787 4.54065 -16.3058 5.68262 
2451 154 2 12.01 0.14 12.885 11.6915 1.28856 12.885 11.6915 99.6533 0 0 2 -0.00276401 -0.00112586 0.00244191 -1.22732 -15.5994 -5.07582 
2460 154 3 1.008 0.03 12.9193 14.0863 2.07489 12.9193 14.0863 100.44 0 0 2 -0.0263298 0.0143892 -0.0202423 9.73329 11.0563 22.2642 
2459 154 3 1.008 0.03 11.2815 13.7663 1.43295 11.2815 13.7663 99.7976 0 0 2 0.00150487 -0.0178471 0.000207714 27.4252 11.6481 -4.56207 
4311 270 3 1.008 0.03 8.70127 14.9788 1.65105 8.70127 162.526 100.016 0 3 2 0.0162822 0.0265425 -0.00962394 7.25949 -7.66078 -3.30452 
4308 270 2 12.01 0.14 8.65944 13.3856 3.13607 8.65944 160.933 101.501 0 3 2 -0.00234466 0.00471741 0.00393011 25.9783 58.6031 26.9594 
6347 397 3 1.008 0.03 10.5911 9.05791 1.1639 10.5911 58.2403 -48.0184 0 1 -1 -0.018327 0.0124441 0.000178261 -29.6994 18.642 2.17507 
4320 270 3 1.008 0.03 8.91739 11.1454 4.1354 8.91739 158.692 102.5 0 3 2 0.00325738 -0.0236945 0.0171977 10.6081 -4.4434 11.4768 
4314 270 3 1.008 0.03 8.8756 14.2594 3.88352 8.8756 161.806 102.248 0 3 2 0.00311305 -0.00349216 0.000171272 -14.2991 -41.9377 -32.8235 
4313 270 3 1.008 0.03 9.6303 12.9097 3.02514 9.6303 160.457 101.39 0 3 2 -0.00841489 -0.00711967 0.0029292 -0.199332 -6.8546 -0.632172 
8101 507 2 12.01 0.11 12.5532 13.484 6.73098 61.7356 13.484 105.096 1 0 2 -0.00882027 -0.000941835 -4.22018e-05 -0.934307 -12.3748 -15.8769 
1187 75 2 12.01 0.14 15.93 9.37024 2.87452 -33.2523 9.37024 2.87452 -1 0 0 -0.00224298 -0.00669403 -0.00300673 -2.4414 -1.56317 46.6965 
1191 75 3 1.008 0.03 15.9932 9.59968 1.883 -33.1892 9.59968 1.883 -1 0 0 0.00209684 0.00506838 -0.0204335 2.42312 3.63389 -48.6822 
8105 507 3 1.008 0.03 11.749 9.42098 5.41464 60.9314 9.42098 103.779 1 0 2 0.0238063 -0.00502881 0.00280483 -6.03395 -8.66385 0.84423 
8099 507 2 12.01 0.14 11.8261 11.4257 5.87101 61.0085 11.4257 104.236 1 0 2 -0.0127013 0.00167686 0.00222501 3.90096 13.2066 -39.3274 
8103 507 3 1.008 0.03 11.1341 11.9444 5.17912 60.3164 11.9444 103.544 1 0 2 0.017122 -0.0182633 -0.0212257 3.38035 -5.67588 9.53377 
6349 397 3 1.008 0.03 10.0539 9.4931 2.70467 10.0539 58.6755 -46.4777 0 1 -1 0.00759988 -0.00297587 -0.00313955 -23.8578 -2.27914 -7.60516 
1185 75 1 16 -0.4 15.419 10.5222 3.53823 -33.7633 10.5222 3.53823 -1 0 0 -0.00219922 -0.00302577 -0.000705368 49.1884 40.9467 2.13894 
9871 619 6 16 -0.53 11.2579 15.6379 3.98033 11.2579 64.8203 3.98033 0 1 0 0.00512281 0.00127175 -0.00258276 3.09051 -20.1883 14.0442 
8100 507 2 12.01 0.14 11.3723 10.0524 6.21755 60.5547 10.0524 104.582 1 0 2 0.00187911 0.00126758 0.00509595 -2.79598 1.78903 28.6072 
1189 75 2 12.01 0.11 16.4123 11.6491 3.537 -32.77 11.6491 3.537 -1 0 0 -0.00370759 -0.00306017 -0.00389514 -7.56332 -69.3549 -17.6538 
1197 75 3 1.008 0.03 15.9325 12.5614 3.66153 -33.2498 12.5614 3.66153 -1 0 0 -0.0137627 -0.0121412 0.00761319 -15.6664 30.2454 12.4409 
8097 507 1 16 -0.4 12.073 12.1425 7.01454 61.2554 12.1425 105.379 1 0 2 -0.00169007 0.00134391 0.000305771 8.69345 37.6412 19.9179 
8109 507 3 1.008 0.03 11.8912 14.0731 6.06701 61.0735 14.0731 104.432 1 0 2 -0.00415121 0.00427699 -0.00653789 -0.117011 -7.00856 14.4965 
8104 507 3 1.008 0.03 12.7529 11.3529 5.31142 61.9353 11.3529 103.676 1 0 2 -0.0112893 0.0120944 -0.0134674 5.54214 -1.18144 -0.257051 
2455 154 3 1.008 0.03 13.4158 11.6812 2.27497 13.4158 11.6812 100.64 0 0 2 -0.0101301 0.0217109 -0.0151352 2.61305 8.37367 -24.5597 
8108 507 3 1.008 0.03 13.512 13.5067 6.19912 62.6943 13.5067 104.564 1 0 2 -0.0279457 -0.0130664 -0.0341536 -2.24656 -7.9437 3.72262 
2458 154 3 1.008 0.03 13.2018 9.59642 0.837292 13.2018 9.59642 99.202 0 0 2 -0.00496895 0.0310153 -0.00853594 11.05 8.14502 4.47776 
9269 580 2 12.01 0.11 15.6569 15.0501 0.897332 114.022 64.2324 -48.285 2 1 -1 -0.00468455 0.000221843 0.00390605 -18.6127 9.29306 -23.5379 
6341 397 2 12.01 0.11 9.66347 9.48726 1.66272 9.66347 58.6696 -47.5196 0 1 -1 -0.00358418 0.00175551 -0.00566 40.9237 -6.84103 -14.4781 
8098 507 1 16 -0.4 9.94242 10.1497 6.2924 59.1248 10.1497 104.657 1 0 2 0.00205953 -0.000153898 0.00279741 7.30566 -27.1644 5.0333 
9265 580 1 16 -0.4 16.6035 15.9402 1.36343 114.968 65.1226 -47.8189 2 1 -1 -0.00272956 -0.000808785 -0.00416261 43.6944 -15.2025 24.3536 
6348 397 3 1.008 0.03 9.44904 10.5325 1.34387 9.44904 59.7149 -47.8385 0 1 -1 0.0375232 0.00338372 0.017058 11.1174 -12.9294 2.97629 
8102 507 2 12.01 0.11 9.43208 8.8326 6.51611 58.6144 8.8326 104.881 1 0 2 0.00335829 -0.00486038 0.0072322 49.5767 -15.9041 -21.974 
9277 580 3 1.008 0.03 14.7103 15.5882 0.806966 113.075 64.7706 -48.3754 2 1 -1 0.0167272 0.0226123 0.0111856 3.94745 1.14341 -6.30758 
2453 154 2 12.01 0.11 12.3612 14.005 1.18385 12.3612 14.005 99.5485 0 0 2 -0.00513673 -0.00411575 -0.00539765 -39.0668 -59.4302 0.496627 
2456 154 3 1.008 0.03 11.8857 11.4746 1.59889 11.8857 11.4746 99.9636 0 0 2 -0.0119832 -0.0114115 0.0266435 -15.9277 0.0193163 0.637007 
2461 154 3 1.008 0.03 12.4007 14.8897 0.627665 12.4007 14.8897 98.9924 0 0 2 0.00315407 0.00270961 0.00823165 2.75482 24.8474 -16.5163 
2449 154 1 16 -0.4 12.8936 12.8735 0.486245 12.8936 12.8735 98.8509 0 0 2 0.00375798 0.00127406 -0.000352966 5.31409 16.1207 12.2847 
8106 507 3 1.008 0.03 11.8275 9.74576 7.20953 61.0098 9.74576 105.574 1 0 2 -0.00406904 0.00757238 0.00187414 -13.6912 3.04295 -27.6441 
8543 534 3 1.008 0.03 21.9184 10.1189 0.430076 71.1008 10.1189 -48.7523 1 0 -1 0.00189961 -0.0192117 -0.00630117 -3.49754 -2.47091 -1.74086 
7720 483 3 1.008 0.03 23.8005 16 6.34139 -25.3819 65.1823 -141.206 -1 1 -3 0.0350653 0.00548512 -0.0141526 41.0239 -16.7713 13.2935 
4494 281 3 1.008 0.03 23.5125 14.4385 1.0475 121.877 -34.7439 148.595 2 -1 3 -0.00110266 0.00458813 0.0109677 4.93914 14.9967 -10.9702 