ITEM: TIMESTEP
2250000
ITEM: NUMBER OF ATOMS
10479
ITEM: BOX BOUNDS pp pp pp
4.0882558190751794e-01 4.9591174418091420e+01
4.0882558190751794e-01 4.9591174418091420e+01
4.0882558190751794e-01 4.9591174418091420e+01
ITEM: ATOMS id mol type mass q x y z xu yu zu ix iy iz vx vy vz fx fy fz 
4388 275 2 12.01 0.14 5.43256 1.45757 2.81657 103.797 1.45757 -46.3658 2 0 -1 0.0053103 0.00577059 -0.00518725 -16.8429 10.5616 6.54088 
4386 275 1 16 -0.4 6.40091 2.50224 2.57655 104.766 2.50224 -46.6058 2 0 -1 0.00538357 0.00078933 -0.001605 3.1008 -34.0252 -7.51256 
4398 275 3 1.008 0.03 7.25566 4.21183 3.29968 105.62 4.21183 -45.8827 2 0 -1 0.0106999 0.0125291 -0.0040903 -4.42725 -2.71512 2.10795 
4390 275 2 12.01 0.11 6.38308 3.56485 3.4605 104.748 3.56485 -45.7218 2 0 -1 0.00365551 -0.00107194 0.00389755 -6.76496 12.0738 19.8923 
4393 275 3 1.008 0.03 5.28165 1.19179 3.864 103.646 1.19179 -45.3183 2 0 -1 0.00787854 0.000994572 -0.0276116 10.4839 8.64934 2.04239 
8459 529 3 1.008 0.03 2.36436 7.99994 4.96234 51.5467 57.1823 103.327 1 1 2 -0.0128569 0.0211334 0.000294718 14.9886 18.4811 -19.3712 
4400 275 3 1.008 0.03 6.29211 3.29049 4.53153 104.657 3.29049 -44.6508 2 0 -1 0.0130181 -0.0242891 0.0117244 5.51021 -0.531198 -12.3346 
8453 529 2 12.01 0.11 2.93611 8.11058 3.99629 52.1185 57.2929 102.361 1 1 2 0.0082917 -0.00682724 0.00800765 -36.3981 -16.2894 -16.9418 
4399 275 3 1.008 0.03 5.49157 4.10733 3.19809 103.856 4.10733 -45.9843 2 0 -1 0.00107721 -0.00552887 -0.00479426 -4.20182 12.2312 2.74978 
8455 529 3 1.008 0.03 5.24726 7.39924 3.92345 54.4296 56.5816 102.288 1 1 2 -0.0112278 0.0160484 0.00445619 17.339 7.51641 4.89251 
8451 529 2 12.01 0.14 5.29301 8.48567 4.10648 54.4754 57.668 102.471 1 1 2 -0.00399578 -0.00365518 0.00443134 -42.2182 -1.96817 27.5638 
94 6 3 1.008 0.03 7.49686 0.707968 6.04006 -90.8678 -48.4744 55.2224 -2 -1 1 -0.00409313 -0.0199101 0.00766138 -21.3752 6.41503 4.04315 
2247 141 3 1.008 0.03 7.75031 6.66134 6.90007 7.75031 6.66134 56.0824 0 0 1 0.0137848 -0.0147913 0.012237 -7.97596 -12.6954 -5.16511 
2074 130 3 1.008 0.03 1.95567 1.40628 4.48261 1.95567 50.5886 53.665 0 1 1 0.010474 0.00514824 0.024174 -21.5377 14.41 9.262 
2172 136 3 1.008 0.03 8.341 2.68207 0.874763 106.706 2.68207 0.874763 2 0 0 0.0175176 -0.0294394 0.00132189 -9.56424 -13.2957 -14.9498 
82 6 1 16 -0.4 5.82472 1.56859 7.08685 -92.54 -47.6138 56.2692 -2 -1 1 0.00468055 -0.00815529 -7.28201e-05 26.8153 12.6711 11.1246 
4391 275 3 1.008 0.03 3.80133 2.91693 2.37879 102.166 2.91693 -46.8036 2 0 -1 -0.00049631 -0.00150028 0.00837087 2.14355 -36.4158 -4.6765 
8460 529 3 1.008 0.03 2.27837 8.374 3.11427 51.4607 57.5563 101.479 1 1 2 -0.00369164 0.0140384 0.0151063 4.94889 -10.0379 29.2172 
4392 275 3 1.008 0.03 3.23678 1.27949 2.82616 101.601 1.27949 -46.3562 2 0 -1 -0.00112819 -0.0113501 0.013268 5.9955 -0.341219 1.15736 
1176 74 3 1.008 0.03 4.52257 7.55783 0.670856 4.52257 56.7402 49.8532 0 1 1 -0.00912536 0.0114142 -0.00784809 -6.13536 25.9209 3.7761 
4387 275 2 12.01 0.14 4.01707 1.79899 2.27011 102.382 1.79899 -46.9122 2 0 -1 0.000746875 -0.00665075 -0.000126331 2.2517 37.6284 28.2599 
2251 141 3 1.008 0.03 8.40621 6.2056 4.69194 8.40621 6.2056 53.8743 0 0 1 -0.000364638 -0.000893142 0.0115304 35.1315 -8.73685 18.1114 
9646 604 6 16 -0.53 8.22423 8.31678 1.3185 8.22423 57.4991 1.3185 0 1 0 -0.00123393 0.0044349 0.00804033 -6.9237 20.6152 4.06863 
2080 130 3 1.008 0.03 3.10694 3.00843 6.45555 3.10694 52.1908 55.6379 0 1 1 -0.00168436 0.0154302 0.00049137 11.8287 -17.6225 46.9314 
8450 529 1 16 -0.4 5.47132 8.10882 6.62735 54.6537 57.2912 104.992 1 1 2 -0.00114508 0.00382854 -0.00190884 -27.6395 31.3477 1.67003 
2073 130 3 1.008 0.03 1.40854 1.62802 6.11206 1.40854 50.8104 55.2944 0 1 1 0.0110367 -0.00577655 0.011264 -6.78391 -0.431372 10.4321 
2079 130 3 1.008 0.03 3.34686 4.46197 5.51506 3.34686 53.6443 54.6974 0 1 1 0.0112157 0.00805449 -0.0122883 -5.00307 -21.7702 4.53937 
2070 130 2 12.01 0.11 3.02424 3.38647 5.51511 3.02424 52.5688 54.6975 0 1 1 0.00224575 0.00860262 0.000720901 -31.1716 61.1509 -65.4165 
2078 130 3 1.008 0.03 3.7016 2.88448 4.81052 3.7016 52.0668 53.9929 0 1 1 -0.00990384 -0.0203456 -0.00350565 -5.03966 -1.50045 7.4151 
4394 275 3 1.008 0.03 5.78304 0.537274 2.38879 104.148 0.537274 -46.7936 2 0 -1 0.0207238 0.0169443 -0.00343736 3.90256 -8.02371 -8.29004 
2429 152 3 1.008 0.03 1.90098 4.7209 1.7001 -145.646 53.9032 100.065 -3 1 2 0.0288982 0.000234165 0.00121598 -28.3086 2.487 -0.461068 
2066 130 1 16 -0.4 1.61467 3.3681 5.08049 1.61467 52.5504 54.2628 0 1 1 -0.000964374 0.00132805 -0.0053191 58.7157 3.29287 16.3629 
86 6 2 12.01 0.11 6.53217 0.48019 6.56003 -91.8325 -48.7022 55.7424 -2 -1 1 0.001595 0.00459446 -0.00435204 32.7096 3.35279 -9.27764 
1018 64 3 1.008 0.03 0.858388 6.22097 6.24838 50.0407 -92.1437 104.613 1 -2 2 -0.0186103 0.0073167 -0.000385174 17.2093 -17.8838 -15.0211 
8461 529 3 1.008 0.03 3.24977 7.08249 3.80622 52.4321 56.2648 102.171 1 1 2 0.01725 0.0162596 -0.00504049 -1.60171 1.41415 -5.0244 
8463 529 3 1.008 0.03 3.48563 7.98573 7.22712 52.668 57.1681 105.592 1 1 2 -0.00296088 0.0206865 -0.00820014 -8.51719 -0.568588 -5.33537 
1180 74 3 1.008 0.03 5.60857 5.15417 0.879762 5.60857 54.3365 50.0621 0 1 1 0.0120707 -0.00206536 -0.0202606 -14.1809 1.76297 7.16647 
4385 275 1 16 -0.4 3.85154 1.32483 0.989945 102.216 1.32483 -48.1924 2 0 -1 0.00304933 -0.00628898 0.00480326 3.76141 7.22346 -32.8831 
2417 152 1 16 -0.4 0.703958 6.37217 1.83828 -146.843 55.5545 100.203 -3 1 2 -0.00205467 -0.00657272 0.00156814 35.3836 8.33011 17.253 
2421 152 2 12.01 0.11 0.797581 4.96998 1.69769 -146.749 54.1523 100.062 -3 1 2 0.00452522 0.00215264 0.00385138 20.3153 -12.4875 36.5999 
2068 130 2 12.01 0.14 1.27402 2.02582 5.11941 1.27402 51.2082 54.3018 0 1 1 -0.0106501 0.00571456 -0.00673837 -27.0498 -23.9688 -19.71 
1175 74 3 1.008 0.03 3.37903 6.32081 0.55108 3.37903 55.5032 49.7334 0 1 1 -0.0063582 0.00175906 -0.00647589 -24.7155 -19.4929 31.644 
2248 141 3 1.008 0.03 8.50462 4.99714 7.31228 8.50462 4.99714 56.4946 0 0 1 -0.0381994 -0.00526865 -0.0124269 -10.6288 20.1652 3.65251 
2243 141 2 12.01 0.14 8.6157 6.10977 7.2655 8.6157 6.10977 56.4479 0 0 1 -0.000114901 -0.00388053 0.0019167 -11.1321 -11.4846 23.8463 
9649 604 8 19 -0.16 9.51878 5.63193 1.1351 9.51878 54.8143 1.1351 0 1 0 -0.00100727 0.0025523 -0.00352482 19.1615 15.4795 -14.1036 
2106 132 3 1.008 0.03 12.2809 0.700587 5.81279 -36.9015 -97.6641 54.9951 -1 -2 1 -0.00113001 0.0246159 0.0162725 6.27783 14.7242 -1.76485 
2252 141 3 1.008 0.03 10.2014 6.0864 4.42174 10.2014 6.0864 53.6041 0 0 1 0.0121327 0.0238617 -0.000802059 -4.13999 -2.36189 8.12337 
2245 141 2 12.01 0.11 9.40218 5.84798 5.14388 9.40218 5.84798 54.3262 0 0 1 0.00353224 -0.00149093 0.00793626 -29.9312 13.3202 -31.1953 
5963 373 3 1.008 0.03 13.7168 5.04845 2.80387 -35.4656 103.413 51.9862 -1 2 1 0.00772013 0.000853809 0.00067828 -4.09507 -10.3391 -5.53603 
5957 373 2 12.01 0.11 14.5556 4.64146 2.2288 -34.6267 103.006 51.4112 -1 2 1 0.000578425 0.000184724 -0.00534535 -16.9107 18.7267 -34.5791 
2253 141 3 1.008 0.03 9.33075 4.78253 5.25888 9.33075 4.78253 54.4412 0 0 1 0.00822608 -0.0111175 -0.000677243 1.30401 -11.8854 -8.8545 
2105 132 3 1.008 0.03 12.0315 1.85902 4.53384 -37.1508 -96.5057 53.7162 -1 -2 1 0.0139472 0.0250056 -0.0177354 -14.2032 3.8619 -19.6199 
2100 132 2 12.01 0.14 12.409 1.76695 5.51729 -36.7734 -96.5977 54.6996 -1 -2 1 1.96056e-05 -0.00666967 -0.00435199 -12.0022 -6.24821 18.2993 
7806 488 3 1.008 0.03 14.1681 8.01775 2.89726 63.3504 8.01775 2.89726 1 0 0 -0.00254863 0.023676 -0.0059778 -18.1633 0.306981 7.64592 
5965 373 3 1.008 0.03 15.3683 5.14827 2.69183 -33.814 103.513 51.8742 -1 2 1 0.00299742 -0.0264779 -0.0138872 20.1819 -2.6484 8.65767 
7802 488 3 1.008 0.03 16.0468 7.81532 2.07666 65.2292 7.81532 2.07666 1 0 0 0.0292636 0.0165593 -0.00604127 2.9845 8.5833 -2.85681 
2109 132 3 1.008 0.03 16.1203 3.70619 5.30843 -33.062 -94.6585 54.4908 -1 -2 1 -0.00680348 0.00515648 0.0226164 -24.091 8.07754 1.38805 
976 61 3 1.008 0.03 13.8106 7.23873 6.39103 13.8106 7.23873 55.5734 0 0 1 0.0239802 0.00800748 0.0229295 -4.25692 -4.99345 -15.4894 
5964 373 3 1.008 0.03 14.6051 3.54749 2.28531 -34.5772 101.912 51.4677 -1 2 1 -0.0181298 0.0142538 -0.00119747 2.14804 4.10403 5.79261 
10156 638 6 16 -0.53 16.6295 7.88906 5.17211 16.6295 7.88906 54.3545 0 0 1 -0.00631311 -0.00594562 -0.000468927 3.82258 -0.92446 12.039 
975 61 3 1.008 0.03 12.0667 7.62628 6.27112 12.0667 7.62628 55.4535 0 0 1 0.012983 -0.00873135 -0.0053115 7.97575 -2.67152 8.44158 
2107 132 3 1.008 0.03 15.2839 5.21948 5.51233 -33.8984 -93.1452 54.6947 -1 -2 1 0.0123372 -0.0184529 0.0166611 -3.55304 34.2989 -13.1048 
2110 132 3 1.008 0.03 9.92078 2.54657 5.59552 -39.2616 -95.8181 54.7779 -1 -2 1 -0.00839804 0.001189 -0.0166518 1.80209 -0.704007 2.90374 
2101 132 2 12.01 0.11 15.1756 4.19971 5.6723 -34.0067 -94.165 54.8547 -1 -2 1 0.00440925 -0.00714126 0.00109373 9.89902 -54.7708 -16.4681 
2097 132 1 16 -0.4 13.948 3.60424 5.15132 -35.2343 -94.7605 54.3337 -1 -2 1 -0.00052945 0.00125459 0.00525432 18.7889 12.8252 9.32612 
974 61 3 1.008 0.03 12.5424 5.96267 6.56407 12.5424 5.96267 55.7464 0 0 1 -0.00486625 -0.00675466 -0.00111674 1.84327 -11.6331 -4.34084 
2103 132 3 1.008 0.03 14.2646 1.6291 4.69729 -34.9178 -96.7356 53.8796 -1 -2 1 -0.0121774 -0.00914906 0.0212508 13.9053 -3.44481 -2.59392 
2099 132 2 12.01 0.14 13.8217 2.22135 5.47857 -35.3606 -96.1433 54.6609 -1 -2 1 -0.00190232 0.00490554 0.00269765 16.6771 0.339651 6.24443 
2108 132 3 1.008 0.03 15.2306 4.10256 6.72763 -33.9517 -94.2621 55.91 -1 -2 1 0.0130705 0.0217298 -0.0113255 -4.12849 -3.43134 19.7542 
2241 141 1 16 -0.4 9.67285 6.33788 6.42901 9.67285 6.33788 55.6114 0 0 1 0.00570863 0.00347485 -0.00321059 26.0906 20.9821 -8.27165 
966 61 2 12.01 0.11 12.818 6.98247 6.76554 12.818 6.98247 55.9479 0 0 1 0.00277274 0.000294653 -0.00160627 8.44976 23.2758 26.5307 
2098 132 1 16 -0.4 11.7802 2.64538 6.43054 -37.4022 -95.7193 55.6129 -1 -2 1 0.00512615 0.000862605 -0.00300221 27.1969 -6.71383 -0.502644 
2102 132 2 12.01 0.11 10.4574 2.35923 6.53243 -38.725 -96.0055 55.7148 -1 -2 1 0.006291 0.00333261 -0.000654919 -68.6318 1.17156 44.8295 
2111 132 3 1.008 0.03 10.1446 1.35124 6.93924 -39.0378 -97.0135 56.1216 -1 -2 1 0.000266033 0.00388111 0.000576532 18.5595 19.6148 -15.6848 
7801 488 3 1.008 0.03 15.838 8.3925 0.416292 65.0203 8.3925 0.416292 1 0 0 0.00588058 -0.0117283 0.00166212 -11.6684 11.0994 26.2329 
2104 132 3 1.008 0.03 14.2583 1.98799 6.45418 -34.924 -96.3767 55.6365 -1 -2 1 0.0141756 0.00943863 -0.0201332 4.19939 0.139592 -3.82156 
7808 488 3 1.008 0.03 13.536 8.27528 1.32568 62.7184 8.27528 1.32568 1 0 0 -0.0104646 0.0124185 -0.00768134 -21.0186 -9.32652 -15.4414 
9762 612 8 19 -0.16 16.2223 0.510556 4.92993 -32.96 49.6929 4.92993 -1 1 0 0.00388203 -0.00531271 0.00172301 13.5721 11.2416 -13.3084 
2170 136 3 1.008 0.03 12.3447 3.99266 0.820613 110.709 3.99266 0.820613 2 0 0 -0.0104357 -0.00867045 -0.00197058 -20.3985 -16.5753 -15.3753 
9645 604 5 32.06 1.02 9.64427 8.30214 1.0885 9.64427 57.4845 1.0885 0 1 0 -0.00475296 0.000863597 0.00341956 -20.7982 -46.6686 12.7637 
9647 604 6 16 -0.53 10.4997 8.16384 2.25595 10.4997 57.3462 2.25595 0 1 0 -0.00520083 -0.00603836 -0.00457623 0.671163 6.16555 -16.2894 
5953 373 1 16 -0.4 14.478 5.09046 0.839225 -34.7044 103.455 50.0216 -1 2 1 0.00136147 -0.0025599 0.000596289 -14.837 9.39552 50.1925 
5959 373 3 1.008 0.03 16.5767 5.29382 0.587682 -32.6057 103.659 49.77 -1 2 1 -0.0162722 0.00841904 0.0102541 -17.8795 -4.83034 -0.146651 
2112 132 3 1.008 0.03 10.0562 3.0655 7.33153 -39.1261 -95.2992 56.5139 -1 -2 1 0.00369617 0.00468339 -0.0273256 9.9717 -19.0257 -30.2846 
2162 136 1 16 -0.4 12.8717 2.00387 0.428528 111.236 2.00387 0.428528 2 0 0 0.00581918 0.00227607 -0.000394782 20.3093 0.309353 -4.34221 
2380 149 3 1.008 0.03 23.6195 2.30622 6.37786 23.6195 51.4886 6.37786 0 1 0 -0.00958609 0.0133936 0.0160389 17.2796 -16.6722 4.58679 
5916 370 3 1.008 0.03 23.1326 1.62288 2.56972 23.1326 50.8052 2.56972 0 1 0 0.0282985 -0.015125 -0.0132025 12.4897 -19.3938 24.6362 
5917 370 3 1.008 0.03 23.9338 2.33468 3.99321 23.9338 51.517 3.99321 0 1 0 -0.0241988 0.0173634 0.00538411 -1.54822 -35.4982 -19.8505 
2394 150 3 1.008 0.03 23.3549 7.28858 4.4982 -75.0098 7.28858 53.6805 -2 0 1 -0.0215223 0.00713509 -0.00300269 5.05424 3.26008 -11.5009 
348 22 3 1.008 0.03 18.7073 5.49894 3.86831 67.8896 5.49894 151.415 1 0 3 -0.00327036 -0.0137074 -0.0063359 17.9946 -1.51309 7.48036 
349 22 3 1.008 0.03 17.5791 6.57871 3.2387 66.7615 6.57871 150.786 1 0 3 -0.00375226 0.0176974 0.0074442 5.8428 -5.5959 -9.82167 
343 22 3 1.008 0.03 21.1226 6.22724 1.37823 70.3049 6.22724 148.925 1 0 3 -0.00230437 -0.010291 0.012267 -11.4443 -10.317 14.155 
339 22 2 12.01 0.14 20.2626 5.56916 1.65401 69.445 5.56916 149.201 1 0 3 0.00328295 0.00654906 -0.00499778 7.04282 41.3765 -19.6725 
9766 612 6 16 -0.53 20.8599 1.734 3.96635 -28.3225 50.9164 3.96635 -1 1 0 0.00361497 0.000522808 -0.00143711 -15.672 12.7391 -11.1559 
9768 612 7 12.01 0.35 19.9247 2.05673 6.36708 -29.2576 51.2391 6.36708 -1 1 0 0.000508251 -0.006168 0.00330557 24.0714 84.5328 27.4894 
337 22 1 16 -0.4 19.2343 6.47363 2.0977 68.4166 6.47363 149.645 1 0 3 0.00432811 0.00561898 0.0018854 34.5989 0.930307 -21.3162 
9771 612 8 19 -0.16 20.8349 3.13788 6.50509 -28.3475 52.3202 6.50509 -1 1 0 -0.00325651 0.00454284 0.00684981 -56.3482 -62.5019 -6.30116 
9769 612 8 19 -0.16 18.6808 2.55732 6.23942 -30.5016 51.7397 6.23942 -1 1 0 -0.00108322 -0.00227659 -9.48658e-05 22.8552 -2.14204 -15.188 
344 22 3 1.008 0.03 20.6421 4.8813 2.37252 69.8245 4.8813 149.92 1 0 3 -0.0194325 0.0299028 -0.00953316 1.32841 -11.9777 14.9043 
9765 612 5 32.06 1.02 20.4401 0.916618 5.06118 -28.7423 50.099 5.06118 -1 1 0 0.000464343 0.000407287 0.00286963 -10.1695 -81.4562 18.6593 
2387 150 2 12.01 0.14 23.3727 6.89359 6.6652 -74.992 6.89359 55.8476 -2 0 1 -0.00243134 0.00479664 0.00520943 34.7932 6.88561 -1.10793 
2388 150 2 12.01 0.14 23.6843 6.50027 5.15801 -74.6804 6.50027 54.3404 -2 0 1 0.000893261 0.00871512 -0.00574985 27.5958 6.25283 55.4657 
341 22 2 12.01 0.11 18.3466 5.85668 2.92502 67.5289 5.85668 150.472 1 0 3 -0.00247755 0.00151247 0.00578516 -57.9338 -20.9857 22.6085 
347 22 3 1.008 0.03 17.8173 4.98285 2.49212 66.9996 4.98285 150.039 1 0 3 -0.0076507 -0.0125079 -0.0284098 8.39361 13.2905 -1.5776 
2393 150 3 1.008 0.03 23.1254 5.61535 4.9615 -75.2393 5.61535 54.1439 -2 0 1 0.00323582 -0.00932877 -0.0246956 -10.9739 -11.9185 -8.22958 
10159 638 8 19 -0.16 19.4593 7.5828 6.04075 19.4593 7.5828 55.2231 0 0 1 0.00471753 -0.00136016 0.00453215 -7.25103 20.8563 -0.4398 
9764 612 8 19 -0.16 17.0417 1.77534 3.33947 -32.1406 50.9577 3.33947 -1 1 0 -0.00217863 -0.00112616 -0.00207524 6.06532 -1.58822 5.33072 
2392 150 3 1.008 0.03 22.3421 6.7912 6.89304 -76.0226 6.7912 56.0754 -2 0 1 -0.0182842 -0.018604 0.00876167 -19.4692 -20.1009 0.520574 
4683 293 3 1.008 0.03 21.1681 8.25927 2.50955 -28.0142 57.4416 51.6919 -1 1 1 -0.00336884 -0.00307931 0.00967992 5.70558 48.5989 -7.83481 
2369 149 1 16 -0.4 24.132 0.436194 7.18907 24.132 49.6185 7.18907 0 1 0 -0.00301558 -0.00776239 -0.00311617 9.58611 7.50739 2.53587 
352 22 3 1.008 0.03 19.2582 2.88354 2.09487 68.4406 2.88354 149.642 1 0 3 0.00959128 -0.00279709 -0.00310289 -7.81273 13.8037 0.0759741 
9761 612 7 12.01 0.35 16.8426 0.524367 3.73614 -32.3397 49.7067 3.73614 -1 1 0 -0.00341227 0.00110575 -0.00536859 -13.1499 -43.1365 16.1117 
5915 370 3 1.008 0.03 24.836 1.48544 2.71703 24.836 50.6678 2.71703 0 1 0 0.0108989 0.00629896 0.00501943 -3.0323 -15.9125 16.6794 
2373 149 2 12.01 0.11 24.5208 1.70267 6.6785 24.5208 50.885 6.6785 0 1 0 -0.00906564 0.00211992 0.002277 -22.2093 34.823 -28.0507 
2385 150 1 16 -0.4 23.6326 8.28865 6.89031 -74.7321 8.28865 56.0727 -2 0 1 0.00373411 -0.00547856 0.000228908 -17.5832 -15.2643 -17.218 
342 22 2 12.01 0.11 19.2102 2.84851 1.00758 68.3925 2.84851 148.555 1 0 3 0.0110813 0.00362123 0.0067983 20.1972 -26.8818 -5.29512 
5909 370 2 12.01 0.11 23.9256 1.38688 3.34453 23.9256 50.5692 3.34453 0 1 0 0.000287698 0.00790736 -0.0053552 -4.49753 66.77 -27.7774 
351 22 3 1.008 0.03 20.2012 2.45153 0.732473 69.3835 2.45153 148.28 1 0 3 0.00312324 0.0102212 -0.0190574 -5.74392 8.5252 -1.96255 
350 22 3 1.008 0.03 18.5979 1.99862 0.752319 67.7803 1.99862 148.299 1 0 3 -0.0209871 -0.0047036 0.0103631 -14.0167 0.322909 -2.1871 
8456 529 3 1.008 0.03 5.90268 8.92574 3.38122 55.085 58.1081 101.746 1 1 2 -0.0100018 0.00165662 -0.00598888 19.9322 7.13681 -23.2325 
8449 529 1 16 -0.4 3.97279 9.04936 3.85364 53.1551 58.2317 102.218 1 1 2 0.002092 0.00181533 0.00303832 32.6503 -0.576453 18.3612 
8452 529 2 12.01 0.14 5.88665 8.91194 5.49307 55.069 58.0943 103.858 1 1 2 -0.00180563 -0.00394103 0.00149027 -37.9753 -12.9162 6.36265 
8457 529 3 1.008 0.03 6.89208 8.73393 5.515 56.0744 57.9163 103.88 1 1 2 -0.0266146 0.0125167 -0.0151633 36.1467 -19.5454 -13.6888 
9862 619 4 14.01 -0.66 1.61161 14.3261 0.674462 1.61161 63.5084 0.674462 0 1 0 -0.000192841 -0.00316577 0.00190099 -49.3766 -17.3776 -21.3569 
650 41 3 1.008 0.03 0.894642 15.7159 5.80559 50.077 15.7159 54.9879 1 0 1 0.0220738 -0.02017 -0.0118163 14.7759 7.96264 4.24424 
8462 529 3 1.008 0.03 4.00605 9.66538 7.07843 53.1884 58.8477 105.443 1 1 2 -0.00147233 -0.0179793 0.00710249 4.5618 -2.01005 1.83342 
3785 237 3 1.008 0.03 4.00738 10.0164 0.983562 4.00738 59.1988 0.983562 0 1 0 0.00582604 -0.00266284 -0.00105888 5.61775 14.4761 10.1517 
8458 529 3 1.008 0.03 5.9665 9.98173 5.62235 55.1488 59.1641 103.987 1 1 2 -0.00163328 -0.00390078 0.00616691 -18.8169 0.729284 7.71132 
3786 237 3 1.008 0.03 5.61621 10.4882 1.5715 5.61621 59.6705 1.5715 0 1 0 -0.00337176 -0.0071188 -0.017419 -3.63644 -5.80273 -2.23876 
3792 237 3 1.008 0.03 2.47974 12.0161 1.36432 2.47974 61.1985 1.36432 0 1 0 0.00270274 0.0204756 0.0287446 -3.42968 -5.00402 33.9356 
3778 237 1 16 -0.4 4.31502 11.8929 2.08807 4.31502 61.0753 2.08807 0 1 0 0.00535493 -0.00106714 -0.00131188 -32.8055 10.5634 25.9203 
3661 229 3 1.008 0.03 3.9585 15.3254 5.30005 3.9585 64.5077 5.30005 0 1 0 0.040612 0.00445869 0.00956936 -0.0763303 1.82089 13.8336 
3649 229 1 16 -0.4 5.06222 14.2024 3.92295 5.06222 63.3848 3.92295 0 1 0 0.00188359 0.00212184 -0.000330374 -26.9585 -18.535 -7.79125 
3652 229 2 12.01 0.14 6.80236 12.5676 4.37624 6.80236 61.7499 4.37624 0 1 0 0.00752678 -0.00123403 -0.000106649 -19.016 25.0946 5.85995 
3656 229 3 1.008 0.03 4.69633 12.4605 4.94722 4.69633 61.6428 4.94722 0 1 0 0.0113422 0.0131116 -0.00342353 -23.804 -26.3216 5.13354 
3657 229 3 1.008 0.03 7.63443 13.207 4.67609 7.63443 62.3893 4.67609 0 1 0 -0.0107881 -0.00875671 0.00245911 -1.77101 1.72078 5.44806 
9855 618 5 32.06 1.02 7.38349 16.4179 2.18771 56.5658 65.6003 2.18771 1 1 0 -0.00156232 -0.00136549 -0.000983585 -18.1757 -12.8962 -15.8928 
3655 229 3 1.008 0.03 5.6348 13.7096 5.7629 5.6348 62.8919 5.7629 0 1 0 0.0131723 -0.00627067 0.0120127 -3.58011 -10.8966 6.11223 
3651 229 2 12.01 0.14 5.45806 13.1589 4.83538 5.45806 62.3413 4.83538 0 1 0 -0.000100447 0.00242786 0.000914297 29.1432 54.0571 -2.99128 
9857 618 6 16 -0.53 6.7099 15.1404 1.93414 55.8923 64.3227 1.93414 1 1 0 0.00485889 0.00238504 -0.000342327 15.8685 4.17404 -24.4881 
3650 229 1 16 -0.4 6.75723 12.6103 2.96316 6.75723 61.7927 2.96316 0 1 0 -0.00466138 -0.00227982 0.00624451 2.34749 -21.3424 -1.74633 
3658 229 3 1.008 0.03 6.94121 11.6127 4.8493 6.94121 60.7951 4.8493 0 1 0 0.00572938 -0.021837 -0.0284862 6.17884 -8.99661 -6.1724 
3653 229 2 12.01 0.11 3.82699 14.8802 4.33429 3.82699 64.0626 4.33429 0 1 0 0.000328124 0.00218419 0.00287428 28.9531 -13.8181 -4.07759 
3659 229 3 1.008 0.03 3.69636 15.7255 3.68671 3.69636 64.9078 3.68671 0 1 0 0.0458062 0.00813386 -0.0229009 -7.68438 7.20789 -8.69114 
9847 618 4 14.01 -0.66 7.04395 16.6608 3.64762 56.2263 65.8431 3.64762 1 1 0 -0.00370448 0.00472348 0.00381884 4.08238 41.4245 57.0351 
10466 677 9 24.305 2 5.41195 13.5291 2.05574 5.41195 62.7115 2.05574 0 1 0 0.00605583 -0.0042083 -0.00144454 -14.9492 25.9363 -16.4353 
3654 229 2 12.01 0.11 7.89704 11.9451 2.46041 7.89704 61.1274 2.46041 0 1 0 0.00726908 0.00054787 0.00125303 32.7788 -28.6739 34.3977 
3660 229 3 1.008 0.03 2.92076 14.264 4.34462 2.92076 63.4463 4.34462 0 1 0 -0.0155822 0.0187127 0.0286059 5.08791 2.12922 0.150105 
3782 237 2 12.01 0.11 2.88257 11.813 2.40529 2.88257 60.9953 2.40529 0 1 0 0.00490563 0.00851604 -0.00490115 31.6439 31.8693 -65.4395 
3791 237 3 1.008 0.03 2.52029 12.5949 3.09051 2.52029 61.7772 3.09051 0 1 0 -0.0021327 0.0300007 -0.0114479 1.37438 -11.1365 -3.45081 
3664 229 3 1.008 0.03 8.4769 12.5662 1.8251 8.4769 61.7485 1.8251 0 1 0 -0.00465199 0.0112674 0.0108572 1.1791 9.08331 -23.6769 
3790 237 3 1.008 0.03 2.57593 10.8336 2.64954 2.57593 60.016 2.64954 0 1 0 0.0257323 -0.0104828 0.021237 -9.44157 -19.1861 14.5063 
9864 619 6 16 -0.53 3.92042 14.7239 1.21162 3.92042 63.9062 1.21162 0 1 0 -0.00453853 -0.00611379 -0.00559601 35.064 -4.98531 17.7478 
3663 229 3 1.008 0.03 7.73844 10.907 2.07527 7.73844 60.0894 2.07527 0 1 0 -0.0227781 -0.0325858 0.0209125 -1.42597 21.4091 3.39624 
8454 529 2 12.01 0.11 4.31959 8.65508 7.3664 53.5019 57.8374 105.731 1 1 2 -0.00425947 0.00364499 0.000152987 42.395 -20.344 51.753 
651 41 3 1.008 0.03 1.3449 11.7261 6.84264 50.5272 11.7261 56.025 1 0 1 0.00738541 -0.0304314 0.0160927 -38.8852 26.0901 2.67199 
3780 237 2 12.01 0.14 4.68626 10.8837 1.16242 4.68626 60.0661 1.16242 0 1 0 0.00153143 0.00042222 -0.000395036 11.8202 -19.3793 -12.2317 
641 41 1 16 -0.4 0.49535 13.3014 5.83079 49.6777 13.3014 55.0131 1 0 1 0.00233022 -0.00390378 0.00718428 13.4979 6.13869 -6.34268 
8057 504 3 1.008 0.03 12.6462 16.6926 4.09565 61.8286 65.875 102.46 1 1 2 -0.0284778 -0.00723236 0.026469 6.78364 -3.74132 5.07709 
8058 504 3 1.008 0.03 12.2826 15.2093 4.9437 61.465 64.3916 103.308 1 1 2 -0.0025665 -0.00148902 0.0199819 -19.0986 -38.9996 -19.6114 
8064 504 3 1.008 0.03 10.904 15.1817 6.73664 60.0864 64.3641 105.101 1 1 2 0.0214293 -0.0126402 0.00565744 -10.369 0.705371 8.25802 
8051 504 2 12.01 0.14 13.6973 16.0577 5.93522 62.8797 65.2401 104.3 1 1 2 -0.00395906 -0.00607849 0.00729153 33.8842 18.6765 0.165579 
3662 229 3 1.008 0.03 8.66642 11.8288 3.27396 8.66642 61.0112 3.27396 0 1 0 2.25665e-05 -0.0295072 0.000878285 -14.248 -4.22655 -17.2528 
10126 636 6 16 -0.53 8.91146 9.48571 6.47041 8.91146 9.48571 55.6528 0 0 1 0.0026241 0.00163271 -0.00603608 -6.74131 22.1021 2.70288 
9858 618 7 12.01 0.35 9.16427 16.041 2.32068 58.3466 65.2234 2.32068 1 1 0 0.00049297 0.00518597 0.00332886 -19.6891 -42.903 1.19205 
9860 618 8 19 -0.16 9.31975 15.0343 3.16644 58.5021 64.2166 3.16644 1 1 0 0.0125089 -0.000708569 -0.00534725 2.60002 1.54313 3.77898 
9825 616 5 32.06 1.02 15.4325 15.0283 1.52988 64.6149 15.0283 1.52988 1 0 0 0.00216147 -0.000317841 -0.00341699 -28.9388 -14.0992 -6.9048 
8062 504 3 1.008 0.03 9.81309 16.7125 6.79165 58.9954 65.8948 105.156 1 1 2 -0.00426786 -0.01485 -0.0055065 4.68755 -16.8954 3.06286 
10130 636 8 19 -0.16 11.2271 10.9139 5.58027 11.2271 10.9139 54.7626 0 0 1 -0.000801695 0.00271823 -0.00305773 -4.22945 2.24346 23.6409 
10131 636 8 19 -0.16 9.8328 12.3418 6.1747 9.8328 12.3418 55.357 0 0 1 -0.000156292 -0.00695444 -0.00239321 -0.594999 7.87542 9.86903 
10128 636 7 12.01 0.35 10.6125 11.3997 6.67894 10.6125 11.3997 55.8613 0 0 1 0.000511597 9.2751e-05 -0.0059972 14.3792 2.80802 -59.9793 
7796 488 2 12.01 0.14 15.9248 8.73719 1.48249 65.1072 8.73719 1.48249 1 0 0 -0.000306467 0.00938326 -0.00131923 27.3554 11.7468 -29.5722 
7798 488 2 12.01 0.11 13.7499 8.78183 2.23281 62.9323 8.78183 2.23281 1 0 0 0.00636145 1.19e-05 -0.000809235 56.7002 -13.2788 0.143251 
9861 618 8 19 -0.16 9.65645 15.5667 1.19149 58.8388 64.749 1.19149 1 1 0 0.000557218 0.0035423 0.00264776 8.39514 12.0239 -5.08229 
4955 310 3 1.008 0.03 12.5261 13.6236 2.73466 61.7084 13.6236 2.73466 1 0 0 0.0172383 -0.0140901 -0.00606472 -3.7614 -28.8353 4.51321 
4945 310 1 16 -0.4 13.193 11.943 1.73752 62.3753 11.943 1.73752 1 0 0 0.000453199 -0.00381715 0.0049812 -8.44197 -24.2887 8.55494 
10149 638 6 16 -0.53 15.234 11.5918 3.93087 15.234 11.5918 53.1132 0 0 1 0.000884113 0.00247015 0.00164319 -4.78334 23.9226 -61.3552 
10148 638 5 32.06 1.02 15.3932 11.0679 5.23116 15.3932 11.0679 54.4135 0 0 1 -0.000570611 -0.0020558 0.00512085 47.0223 2.99973 30.5908 
10150 638 6 16 -0.53 14.342 10.3421 5.72573 14.342 10.3421 54.9081 0 0 1 0.00407199 -0.000584636 0.00262276 -71.4124 -50.1643 24.585 
9827 616 6 16 -0.53 14.5872 15.921 2.30512 63.7695 15.921 2.30512 1 0 0 0.00213997 -0.000728694 -0.00113917 12.4833 -11.2774 -8.38584 
9826 616 6 16 -0.53 15.2787 13.578 1.77614 64.461 13.578 1.77614 1 0 0 -0.000561485 -0.00286387 -0.00546031 36.8212 30.3782 12.3402 
4949 310 2 12.01 0.11 12.3419 12.5045 2.71437 61.5242 12.5045 2.71437 1 0 0 0.00615377 -0.00126221 0.00117128 -24.7308 39.0337 -0.390668 
4956 310 3 1.008 0.03 11.2616 12.4121 2.41075 60.4439 12.4121 2.41075 1 0 0 0.00992291 0.00557142 0.00519122 20.6996 -4.46764 12.1168 
7807 488 3 1.008 0.03 12.9204 9.22521 2.69555 62.1027 9.22521 2.69555 1 0 0 0.00192626 -0.00184717 -0.00785726 -21.9573 16.9405 8.19999 
10454 665 9 24.305 2 15.0835 11.5658 1.86933 64.2658 11.5658 1.86933 1 0 0 -0.00117008 -0.00127557 -0.00332569 -7.47483 -6.66253 0.690773 
7794 488 1 16 -0.4 14.8715 9.61893 1.93177 64.0538 9.61893 1.93177 1 0 0 0.00257955 -0.0010771 0.00665311 -9.67818 -4.56664 -0.984818 
4957 310 3 1.008 0.03 12.5012 12.0978 3.72815 61.6836 12.0978 3.72815 1 0 0 -0.00255619 0.0158683 0.0235096 -1.98407 1.78302 -9.08868 
8054 504 2 12.01 0.11 10.5044 16.06 6.22445 59.6867 65.2424 104.589 1 1 2 -0.00166546 0.00902946 0.0025272 -25.5999 6.44982 -19.7454 
10147 638 4 14.01 -0.66 16.7671 10.3941 5.44526 16.7671 10.3941 54.6276 0 0 1 -0.00141575 0.00544137 0.00431506 45.84 -23.5061 18.1691 
10153 638 8 19 -0.16 14.1737 12.9007 6.47367 14.1737 12.9007 55.656 0 0 1 -0.00102854 0.00252659 0.00297025 -37.2544 24.5789 8.40378 
10151 638 7 12.01 0.35 15.3806 12.506 6.35336 15.3806 12.506 55.5357 0 0 1 0.000678592 -0.00892673 -0.00782609 40.1055 -47.8048 -11.6087 
8055 504 3 1.008 0.03 14.3054 15.2747 5.53678 63.4878 64.457 103.901 1 1 2 -0.0143042 0.0110923 0.0206043 10.8493 -12.0107 -1.4927 
8052 504 2 12.01 0.14 12.5259 16.1997 5.0692 61.7083 65.3821 103.434 1 1 2 -0.0111021 -0.00205947 0.00130855 -26.1211 40.1416 9.42877 
10154 638 8 19 -0.16 16.082 13.4849 5.76911 16.082 13.4849 54.9515 0 0 1 0.00326096 -0.00404659 0.0025193 4.24973 -1.35668 30.9246 
8060 504 3 1.008 0.03 15.8613 16.4627 7.11889 65.0436 65.6451 105.484 1 1 2 0.0112091 0.0106247 0.00442759 -8.18311 12.0892 11.05 
8056 504 3 1.008 0.03 13.4252 15.7953 6.93806 62.6076 64.9777 105.303 1 1 2 -0.0134126 0.0105638 -0.00904979 -3.06165 -2.42902 13.6185 
8063 504 3 1.008 0.03 9.99911 15.7747 5.27159 59.1815 64.957 103.636 1 1 2 -0.001039 -0.00250072 0.0174248 3.70433 -0.994404 18.8091 
10129 636 8 19 -0.16 11.5484 11.9698 7.41063 11.5484 11.9698 56.593 0 0 1 0.00495644 -0.00364371 -0.00195863 -0.605899 2.63668 8.51687 
4947 310 2 12.01 0.14 12.7522 12.3423 0.456367 61.9346 12.3423 0.456367 1 0 0 -0.00800284 0.00687665 0.000992108 -11.2251 17.6221 -14.3934 
5435 340 3 1.008 0.03 23.125 13.2965 0.622397 -26.0573 -35.8859 -48.56 -1 -1 -1 -0.0162602 0.00425209 -0.00533218 11.4748 10.945 -12.6449 
9831 616 8 19 -0.16 17.962 14.847 0.944488 67.1443 14.847 0.944488 1 0 0 -0.0046565 -0.000813371 0.00604542 -9.63693 23.31 26.5201 
2395 150 3 1.008 0.03 21.8024 9.19353 6.04487 -76.5623 9.19353 55.2272 -2 0 1 -0.0167576 0.0232314 -0.00379778 0.76998 -9.08716 -16.1348 
2389 150 2 12.01 0.11 22.417 9.05648 6.91237 -75.9477 9.05648 56.0947 -2 0 1 -0.00288563 0.00142759 0.000373642 27.4761 -16.2994 26.1929 
10160 638 8 19 -0.16 19.3762 8.99193 4.41864 19.3762 8.99193 53.601 0 0 1 0.00623395 0.00333091 -0.00235994 -23.0809 -1.29399 41.4702 
10155 638 5 32.06 1.02 17.1729 8.92559 6.02605 17.1729 8.92559 55.2084 0 0 1 0.000849363 0.00408439 8.73435e-06 -25.5873 40.443 -48.2976 
7805 488 3 1.008 0.03 18.5616 11.567 0.656142 67.7439 11.567 0.656142 1 0 0 -0.0120088 0.0233766 -0.00342 16.5354 1.96698 -9.69451 
9828 616 7 12.01 0.35 17.1669 15.5663 1.78641 66.3493 15.5663 1.78641 1 0 0 0.00359435 0.0106403 -0.00135126 -3.4515 -17.8816 -39.6658 
9830 616 8 19 -0.16 17.6175 15.444 3.01277 66.7998 15.444 3.01277 1 0 0 0.000617117 0.000267566 -0.0020535 1.06908 -4.58657 9.81565 
4685 293 3 1.008 0.03 21.2546 9.87755 3.41986 -27.9277 59.0599 52.6022 -1 1 1 0.0222761 0.00533228 0.00811342 4.98617 -12.4023 -29.2757 
7795 488 2 12.01 0.14 17.2262 9.59374 1.4931 66.4085 9.59374 1.4931 1 0 0 0.00912245 -0.0036062 0.00437302 -3.2176 -28.9903 3.6396 
7793 488 1 16 -0.4 16.8695 10.9748 1.65532 66.0519 10.9748 1.65532 1 0 0 -0.000762943 -0.00431865 0.00370995 24.3767 5.87863 -3.64037 
7803 488 3 1.008 0.03 17.8724 12.8031 1.75467 67.0548 12.8031 1.75467 1 0 0 -0.01419 -0.010516 -0.000333593 6.2656 -15.2578 -5.62493 
10161 638 8 19 -0.16 19.7197 9.68567 6.45042 19.7197 9.68567 55.6328 0 0 1 -0.00245647 -0.00371373 0.00106127 -18.0884 -11.3449 -9.27479 
8622 539 3 1.008 0.03 19.2133 13.691 3.77662 117.578 13.691 3.77662 2 0 0 -0.00669303 0.0159438 0.00633253 13.0608 2.6244 6.10466 
4677 293 2 12.01 0.11 21.4095 9.39032 2.40427 -27.7728 58.5727 51.5866 -1 1 1 0.00271733 0.00102666 -0.00112367 -21.5966 -21.6695 42.0131 
8617 539 3 1.008 0.03 21.7803 12.415 6.61762 120.145 12.415 6.61762 2 0 0 0.000607286 -0.00917365 -0.00254705 4.3131 1.55491 7.77188 
7800 488 3 1.008 0.03 17.8464 9.16123 2.30267 67.0288 9.16123 2.30267 1 0 0 0.0203515 0.0178749 0.00375927 -3.30615 14.8352 -3.9137 
8619 539 3 1.008 0.03 24.5998 13.7589 2.89907 122.964 13.7589 2.89907 2 0 0 -0.00692115 -0.0104053 0.0099654 -13.3146 25.9036 21.2793 
8615 539 3 1.008 0.03 22.8128 12.3332 4.27883 121.177 12.3332 4.27883 2 0 0 0.00559781 0.00521784 0.0181757 -0.923386 -15.4486 -19.2591 