ITEM: TIMESTEP
350000
ITEM: NUMBER OF ATOMS
10479
ITEM: BOX BOUNDS pp pp pp
4.0882558190751794e-01 4.9591174418091420e+01
4.0882558190751794e-01 4.9591174418091420e+01
4.0882558190751794e-01 4.9591174418091420e+01
ITEM: ATOMS id mol type mass q x y z xu yu zu ix iy iz vx vy vz fx fy fz 
6582 412 2 12.01 0.11 5.35502 6.91965 4.04046 54.5374 6.91965 53.2228 1 0 1 0.00783857 -0.00461731 -0.00163594 -20.1194 9.6058 -1.11519 
1283 81 2 12.01 0.14 6.76737 2.49631 0.686814 6.76737 51.6787 0.686814 0 1 0 0.00434329 0.000559363 0.00193279 -18.671 27.116 -9.63726 
1287 81 3 1.008 0.03 6.09016 1.7554 1.03492 6.09016 50.9377 1.03492 0 1 0 -0.0117165 -0.0238876 -0.00479133 6.77412 -26.1284 12.6744 
7689 481 3 1.008 0.03 1.0232 3.96605 5.33403 1.0232 102.331 54.5164 0 2 1 -0.00104725 -0.00773849 0.0267245 -13.9489 -3.23264 6.00224 
7684 481 2 12.01 0.14 2.04356 4.28173 5.41364 2.04356 102.646 54.596 0 2 1 0.000465667 -0.00200136 -0.000971209 17.7226 -17.8496 -3.11836 
7688 481 3 1.008 0.03 1.50539 6.07629 6.43643 1.50539 104.441 55.6188 0 2 1 -0.00307687 0.0111237 0.0174137 6.32948 -8.56911 2.12827 
7683 481 2 12.01 0.14 2.2526 5.2681 6.54134 2.2526 103.633 55.7237 0 2 1 0.00467001 -0.00184763 0.00545804 -24.2236 2.4882 23.1303 
7690 481 3 1.008 0.03 2.17027 4.86481 4.50327 2.17027 103.23 53.6856 0 2 1 0.00891518 0.00600526 -0.00603683 10.6711 -7.23407 -5.56965 
7682 481 1 16 -0.4 2.86578 3.07504 5.56122 2.86578 101.44 54.7436 0 2 1 0.0035564 0.00345325 0.00240668 -17.413 38.5586 -2.62991 
4783 299 3 1.008 0.03 7.29239 3.70551 5.184 154.839 3.70551 -43.9983 3 0 -1 0.0109126 0.0208186 -0.00412784 5.63094 1.42398 3.75267 
6591 412 3 1.008 0.03 5.2124 6.20641 4.8826 54.3947 6.20641 54.0649 1 0 1 0.0458945 0.0106631 -0.023897 14.9743 4.84747 -18.1469 
4770 299 1 16 -0.4 7.31806 2.77834 7.04211 154.865 2.77834 -42.1402 3 0 -1 -0.00174704 -0.00186838 0.000171164 19.6806 3.27005 18.0135 
7681 481 1 16 -0.4 3.54247 5.7947 6.4759 3.54247 104.159 55.6583 0 2 1 -1.98445e-05 -0.00374366 -0.00118809 17.8084 -4.65815 -4.36717 
4774 299 2 12.01 0.11 7.18569 3.91961 6.25233 154.733 3.91961 -42.93 3 0 -1 0.000166299 0.00351668 -0.00059204 -20.6225 15.2625 -22.337 
4772 299 2 12.01 0.14 6.60501 1.70021 6.53643 154.152 1.70021 -42.6459 3 0 -1 0.00538861 0.000732771 -0.0066659 11.7464 -62.9236 11.3201 
7693 481 3 1.008 0.03 3.07648 7.76512 6.67808 3.07648 106.13 55.8604 0 2 1 -0.00165989 -0.00377099 0.0142726 14.3208 -12.2933 14.9714 
4771 299 2 12.01 0.14 7.44297 0.867369 5.47718 154.99 0.867369 -43.7052 3 0 -1 0.00783295 0.00570074 0.00762701 -12.2711 3.09787 -8.82404 
4776 299 3 1.008 0.03 7.80825 1.64649 4.77725 155.355 1.64649 -44.4051 3 0 -1 -0.0136564 0.00224527 -0.00240231 2.44463 -17.0699 5.96788 
7686 481 2 12.01 0.11 2.98205 2.45112 4.31342 2.98205 100.816 53.4958 0 2 1 -0.00363062 -0.000252204 -0.00226044 21.991 15.1043 -27.6231 
4777 299 3 1.008 0.03 5.67087 1.98836 6.20872 153.218 1.98836 -42.9736 3 0 -1 -0.00962178 0.0179578 0.0134319 -30.6616 18.2158 -27.6143 
7695 481 3 1.008 0.03 3.67802 2.9889 3.60397 3.67802 101.354 52.7863 0 2 1 -0.00610373 -0.0132922 -0.0186351 -12.6429 -11.1548 21.5882 
7696 481 3 1.008 0.03 3.3439 1.45559 4.46253 3.3439 99.8203 53.6449 0 2 1 -0.0250419 0.00336972 0.00513999 5.53117 -12.625 0.182564 
7694 481 3 1.008 0.03 2.04976 2.39836 3.77867 2.04976 100.763 52.961 0 2 1 0.0345953 0.00780989 0.00736602 -11.591 -4.89013 -0.274461 
9424 589 3 1.008 0.03 2.20413 6.82819 2.8759 2.20413 6.82819 101.241 0 0 2 0.0142788 -0.00198337 -0.00562833 -13.0941 4.37122 14.1216 
6580 412 2 12.01 0.14 6.77258 8.21804 5.42665 55.9549 8.21804 54.609 1 0 1 0.00395109 -0.00380623 -0.00229247 0.568219 -16.0399 -31.8065 
6585 412 3 1.008 0.03 6.60746 7.3194 6.01375 55.7898 7.3194 55.1961 1 0 1 0.00487829 -0.0084232 -0.0179713 8.6275 6.72275 17.2143 
1288 81 3 1.008 0.03 7.07943 3.10237 1.55019 7.07943 52.2847 1.55019 0 1 0 -0.00557082 -0.0195094 -0.0151195 11.1318 -13.5785 -1.51816 
4784 299 3 1.008 0.03 6.1313 4.23873 6.32834 153.678 4.23873 -42.854 3 0 -1 -0.011888 -0.0192439 -0.0158086 11.2264 6.93325 3.62922 
508 32 3 1.008 0.03 1.18111 4.00883 2.19098 1.18111 -45.1735 2.19098 0 -1 0 -0.00389959 0.0197403 0.0144854 -11.3748 2.57624 1.48003 
9410 589 1 16 -0.4 0.56174 8.29339 3.21835 0.56174 8.29339 101.583 0 0 2 0.00552014 -5.40148e-05 -0.00133559 4.04338 -8.25576 18.6092 
6577 412 1 16 -0.4 8.22907 6.74869 4.10693 57.4114 6.74869 53.2893 1 0 1 -0.00279172 0.000123055 0.000918065 15.2163 1.5377 -3.40569 
6579 412 2 12.01 0.14 8.15574 8.06259 4.70629 57.3381 8.06259 53.8886 1 0 1 0.00240376 0.00313334 0.00201899 -20.5398 -3.04784 -16.9344 
9414 589 2 12.01 0.11 1.64596 7.71594 2.5495 1.64596 7.71594 100.914 0 0 2 -0.0077486 -0.000850636 0.00256887 20.3336 10.5934 -14.1124 
4782 299 3 1.008 0.03 7.88027 4.73688 6.4877 155.427 4.73688 -42.6946 3 0 -1 0.00806842 -0.0297765 0.00623979 -5.14627 -4.51312 5.31336 
9423 589 3 1.008 0.03 2.35804 8.47675 2.25099 2.35804 8.47675 100.616 0 0 2 -0.00583763 0.013815 -0.00984947 4.84743 3.25642 5.20219 
6592 412 3 1.008 0.03 4.35067 6.88429 3.57417 53.533 6.88429 52.7565 1 0 1 0.0421235 -0.0179745 -0.0187538 15.6442 5.97729 -0.672387 
6590 412 3 1.008 0.03 6.11248 6.62137 3.28295 55.2948 6.62137 52.4653 1 0 1 -0.00724876 -0.00678591 0.0123916 -16.9185 -3.99889 10.457 
6578 412 1 16 -0.4 5.63993 8.25428 4.52422 54.8223 8.25428 53.7066 1 0 1 0.00108959 -0.00448371 -0.000700665 13.9417 -14.7753 5.18293 
9418 589 3 1.008 0.03 1.49822 7.78688 4.98518 1.49822 7.78688 103.35 0 0 2 0.00808541 0.00486266 -0.0165238 -6.11729 14.7501 -2.81768 
1295 81 3 1.008 0.03 3.78545 4.82359 0.799513 3.78545 54.0059 0.799513 0 1 0 -0.0200337 -0.0188212 -0.00560646 -5.83091 -2.68756 -8.35751 
9422 589 3 1.008 0.03 1.22535 7.44252 1.64062 1.22535 7.44252 100.005 0 0 2 -0.00335385 -0.0299036 -0.00801113 -15.1875 -9.68534 -23.4802 
7685 481 2 12.01 0.11 3.71046 6.99101 7.19044 3.71046 105.356 56.3728 0 2 1 -0.00647424 -0.00234887 -0.00590976 -24.4637 26.8039 -26.1546 
7692 481 3 1.008 0.03 4.71929 7.35658 7.17602 4.71929 105.721 56.3584 0 2 1 0.00139014 -0.0163175 -0.0152143 9.89123 -0.340866 -1.20173 
4778 299 3 1.008 0.03 6.18231 1.04558 7.32571 153.729 1.04558 -41.8566 3 0 -1 -0.00672833 -0.0127726 -0.0339088 21.7723 5.09032 -2.65749 
1294 81 3 1.008 0.03 2.56015 3.59603 0.503883 2.56015 52.7784 0.503883 0 1 0 -0.0101717 0.00336273 0.0196501 -8.43424 -0.449073 -5.03325 
1576 99 3 1.008 0.03 9.63096 2.80493 3.51099 58.8133 -46.3774 52.6933 1 -1 1 -0.0012809 -0.0188192 0.0222166 -37.0102 12.0305 -17.1051 
9509 595 8 19 -0.16 12.904 5.99818 1.0039 12.904 55.1805 50.1863 0 1 1 0.000852368 0.00147259 -0.00185323 16.854 -19.1815 1.29592 
1581 99 3 1.008 0.03 10.7391 1.31654 1.41366 59.9214 -47.8658 50.596 1 -1 1 0.0272941 0.0168911 -0.0183327 -7.9826 5.01065 3.40155 
9507 595 8 19 -0.16 11.9627 4.1165 1.49846 11.9627 53.2989 50.6808 0 1 1 0.00302164 -0.00427962 -0.00385649 -0.667217 7.96583 12.5016 
1577 99 3 1.008 0.03 10.1541 3.99885 5.62017 59.3364 -45.1835 54.8025 1 -1 1 -0.00214433 -0.00837514 -0.00898899 13.5468 -23.1997 -11.5896 
1573 99 2 12.01 0.11 11.376 1.02855 2.24344 60.5584 -48.1538 51.4258 1 -1 1 0.000701195 -0.00730852 0.00295151 1.26528 -2.9095 19.0384 
1569 99 1 16 -0.4 10.9071 1.29003 3.57535 60.0894 -47.8923 52.7577 1 -1 1 0.00156594 -0.00352969 0.00368977 -8.75278 -3.8576 7.93338 
1523 96 2 12.01 0.14 15.5914 1.74179 5.65196 15.5914 50.9241 54.8343 0 1 1 0.00965126 0.00609525 -0.000669375 -7.33765 -48.2664 -24.3381 
1527 96 3 1.008 0.03 14.8377 2.47857 5.83574 14.8377 51.6609 55.0181 0 1 1 0.0213301 0.0115596 0.00973313 -4.4554 15.0728 13.0823 
1575 99 3 1.008 0.03 11.2377 3.23746 3.41924 60.42 -45.9449 52.6016 1 -1 1 -0.0115385 0.0112204 -0.00143344 30.8594 37.7727 -22.5268 
1571 99 2 12.01 0.14 10.5703 2.6513 3.90107 59.7526 -46.531 53.0834 1 -1 1 0.00538142 0.00698862 -0.000791142 6.0086 -51.1232 13.4034 
1572 99 2 12.01 0.14 10.5783 2.97435 5.38729 59.7607 -46.208 54.5696 1 -1 1 0.00314113 0.00192266 0.0059587 -0.549793 13.3808 23.3656 
1521 96 1 16 -0.4 15.7187 1.6309 4.19938 15.7187 50.8132 53.3817 0 1 1 0.00345667 -0.00268223 0.00486248 -19.6596 -11.6277 13.0291 
8374 524 2 12.01 0.11 13.989 5.98669 4.98356 112.354 104.351 4.98356 2 2 0 0.000493557 -0.00501889 -0.00496086 -15.6017 -4.33074 21.1889 
1579 99 3 1.008 0.03 12.2714 1.65504 2.22169 61.4537 -47.5273 51.404 1 -1 1 0.00270111 -0.0125871 0.0095306 0.353061 -12.227 -16.2585 
1525 96 2 12.01 0.11 14.4198 1.4557 3.59289 14.4198 50.6381 52.7752 0 1 1 0.00400523 0.000604736 -0.000800269 52.4409 -25.9076 -17.3068 
8383 524 3 1.008 0.03 13.6675 5.18314 4.32578 112.032 103.548 4.32578 2 2 0 0.00695823 -0.00790636 -0.0207038 4.50311 5.72996 -13.0784 
8370 524 1 16 -0.4 14.7594 5.34905 6.00897 113.124 103.714 6.00897 2 2 0 0.00144402 0.00958446 -0.00113767 -6.68283 25.5768 -3.43323 
1578 99 3 1.008 0.03 9.97386 2.28493 5.97757 59.1562 -46.8974 55.1599 1 -1 1 0.00476173 -0.019049 -0.00767302 -5.4079 -3.33125 -8.67617 
8382 524 3 1.008 0.03 14.4899 6.85565 4.51368 112.855 105.22 4.51368 2 2 0 0.00710812 -0.0159861 0.00519258 -1.89959 -15.1854 -3.34827 
1532 96 3 1.008 0.03 13.9207 2.35184 3.51841 13.9207 51.5342 52.7008 0 1 1 0.0134919 -0.0273639 0.0122993 -22.2466 36.4898 -0.214737 
8384 524 3 1.008 0.03 13.0406 6.36839 5.42332 111.405 104.733 5.42332 2 2 0 0.0126146 -0.0159947 -1.40501e-05 12.7438 -4.11665 -5.94913 
1533 96 3 1.008 0.03 14.5589 1.0342 2.58383 14.5589 50.2165 51.7662 0 1 1 -0.00317222 -0.00412399 0.0034289 -2.74325 12.4955 5.42227 
1570 99 1 16 -0.4 11.9126 2.83779 5.87796 61.0949 -46.3446 55.0603 1 -1 1 0.00554782 -0.00120859 -0.00247028 -10.402 3.84384 -17.1689 
8378 524 3 1.008 0.03 15.9189 6.94694 6.55502 114.284 105.312 6.55502 2 2 0 -0.000131005 -0.0053403 -0.0194127 14.0907 8.92705 -8.81406 
8372 524 2 12.01 0.14 15.1254 6.36042 6.95197 113.49 104.725 6.95197 2 2 0 0.00608648 -0.00490207 0.00276628 31.6965 -27.8014 -1.0837 
2539 159 3 1.008 0.03 16.2218 4.26114 3.46304 16.2218 53.4435 52.6454 0 1 1 0.0246401 -0.0023663 0.00107782 -20.6923 6.01971 0.391684 
6589 412 3 1.008 0.03 9.77309 7.33166 2.73211 58.9554 7.33166 51.9145 1 0 1 -0.0324804 -0.0244309 -0.0177231 -6.78062 -11.8183 8.04176 
1574 99 2 12.01 0.11 11.9428 3.19898 7.22053 61.1252 -45.9834 56.4029 1 -1 1 0.00441629 0.000372077 0.00654842 -35.2225 17.7536 15.4549 
6581 412 2 12.01 0.11 9.38791 6.45086 3.29386 58.5703 6.45086 52.4762 1 0 1 0.0022883 0.00334957 -0.00099472 31.7496 -2.59101 33.1566 
6583 412 3 1.008 0.03 8.94618 8.3242 5.36362 58.1285 8.3242 54.546 1 0 1 -0.00332159 0.0078464 -0.0187285 15.9569 -11.1366 17.9511 
6588 412 3 1.008 0.03 9.2557 5.61233 2.59023 58.4381 5.61233 51.7726 1 0 1 0.000563406 0.00563703 0.0476188 -6.85229 7.92086 4.96081 
6587 412 3 1.008 0.03 10.2048 6.07341 4.01148 59.3872 6.07341 53.1938 1 0 1 0.00324713 -0.00581536 0.0527285 -26.2252 18.654 -26.5724 
9504 595 6 16 -0.53 14.8037 3.52793 0.973897 14.8037 52.7103 50.1562 0 1 1 -0.00106395 0.00153516 -0.00649735 -18.7255 8.12092 -31.987 
1584 99 3 1.008 0.03 11.9121 4.28317 7.36735 61.0945 -44.8992 56.5497 1 -1 1 -0.0239044 -0.0237601 -0.010513 -1.49229 -1.96213 -4.53625 
8538 534 3 1.008 0.03 14.0069 8.59025 0.837895 63.1893 8.59025 -48.3445 1 0 -1 0.0158449 -0.0200781 -0.00734393 8.1649 -0.901324 -0.750833 
9506 595 7 12.01 0.35 12.5857 4.77974 0.545768 12.5857 53.9621 49.7281 0 1 1 0.00181053 0.00164673 -0.00470218 -44.7539 14.0903 -23.7464 
1531 96 3 1.008 0.03 13.8219 0.722253 4.04639 13.8219 49.9046 53.2287 0 1 1 0.0148117 -0.0134489 0.00730291 -16.4373 -15.1848 21.1797 
1528 96 3 1.008 0.03 15.2847 0.798164 6.21805 15.2847 49.9805 55.4004 0 1 1 0.00308664 -0.00522697 0.00966434 6.08705 24.0271 -26.1301 
8377 524 3 1.008 0.03 14.3665 7.06107 7.14005 112.731 105.426 7.14005 2 2 0 -0.0117065 0.0192631 -0.003364 -24.5561 13.7074 9.04333 
8107 507 3 1.008 0.03 9.1663 8.37295 0.633199 58.3487 8.37295 98.9979 1 0 2 -0.00262064 -0.0299499 0.020401 1.03608 9.08292 14.9835 
9667 606 4 14.01 -0.66 24.9922 4.45131 0.609694 24.9922 53.6337 49.792 0 1 1 -0.0110537 0.00613582 -0.00547014 20.4851 13.4374 -30.2292 
10265 645 8 19 -0.16 22 2.06796 6.59879 22 51.2503 6.59879 0 1 0 0.00385014 0.00669128 -0.000813343 -12.9871 -10.0382 11.9103 
1524 96 2 12.01 0.14 16.9877 2.08849 6.05881 16.9877 51.2708 55.2412 0 1 1 0.00134783 -0.00237492 0.00142687 7.73585 -4.86885 29.8148 
1529 96 3 1.008 0.03 16.9793 3.15123 5.9941 16.9793 52.3336 55.1765 0 1 1 0.0174067 0.0169805 0.0170628 10.9657 15.9916 1.60267 
1530 96 3 1.008 0.03 17.1009 1.85932 7.15862 17.1009 51.0417 56.341 0 1 1 0.00895781 0.0051916 -0.00215364 4.97455 0.176479 -25.9611 
1522 96 1 16 -0.4 17.9713 1.51791 5.13348 17.9713 50.7003 54.3158 0 1 1 -0.00359441 -0.00758125 -0.00309972 -35.6746 3.7193 4.04545 
10478 689 9 24.305 2 17.3797 1.32828 3.31832 17.3797 50.5106 52.5007 0 1 1 -0.00340126 -0.00296651 0.00332287 7.93964 -3.82839 -12.5589 
7953 498 1 16 -0.4 16.8714 0.757164 1.53026 16.8714 49.9395 50.7126 0 1 1 -0.00517763 -0.00121371 0.00311689 5.09394 4.88072 28.8128 
398 25 3 1.008 0.03 24.9574 7.1477 5.74577 24.9574 56.33 54.9281 0 1 1 0.050661 0.0323591 0.00282293 -5.89569 -12.3048 -15.1227 
2533 159 2 12.01 0.11 17.2702 4.42515 3.49989 17.2702 53.6075 52.6822 0 1 1 0.00654747 0.00555277 -0.00304208 34.6604 13.7584 -26.0155 
2540 159 3 1.008 0.03 17.606 4.60212 4.52341 17.606 53.7845 53.7058 0 1 1 -0.00380278 0.00581989 0.00995214 -4.62444 10.581 -1.91531 
9673 606 8 19 -0.16 24.1743 6.96774 1.85601 24.1743 56.1501 51.0384 0 1 1 0.00585662 -6.92921e-06 0.0040911 6.38339 3.6387 15.114 
9668 606 5 32.06 1.02 24.08 4.3395 1.78593 24.08 53.5218 50.9683 0 1 1 0.00280351 -0.000698517 -0.00294324 -14.78 1.4314 5.45072 
9671 606 7 12.01 0.35 23.2728 6.01659 1.75027 23.2728 55.1989 50.9326 0 1 1 0.00727467 -0.00295581 0.00109438 10.5255 -10.3346 -8.73841 
1534 96 3 1.008 0.03 19.4552 2.42454 6.09105 19.4552 51.6069 55.2734 0 1 1 -0.0132968 -0.00410555 -0.0145351 2.17809 24.4202 24.0005 
9669 606 6 16 -0.53 23.0264 3.39675 1.64015 23.0264 52.5791 50.8225 0 1 1 0.00199944 -0.0038544 0.00190904 -18.4223 -5.68243 7.32994 
10263 645 7 12.01 0.35 23.0864 2.1307 5.87926 23.0864 51.313 5.87926 0 1 0 -0.00276079 0.00486493 0.00398618 -35.0438 57.6005 -7.42008 
1526 96 2 12.01 0.11 19.2077 1.46598 5.74949 19.2077 50.6483 54.9318 0 1 1 0.00485117 -0.000692751 -0.00107838 40.3414 -3.79265 -27.0246 
2538 159 3 1.008 0.03 20.9252 2.28949 2.02226 20.9252 51.4718 51.2046 0 1 1 -0.00795244 -0.00955313 -0.000567809 -48.2098 -2.30785 17.025 
2530 159 1 16 -0.4 19.2116 1.07671 2.58249 19.2116 50.2591 51.7648 0 1 1 0.00272901 -0.00443747 -0.00496321 -1.01469 -14.3102 19.0181 
2537 159 3 1.008 0.03 19.5303 2.36012 1.02648 19.5303 51.5425 50.2088 0 1 1 0.0232189 0.0309796 -0.00535389 -2.7458 6.14037 34.8069 
10260 645 5 32.06 1.02 24.2591 3.26718 6.63827 24.2591 52.4495 6.63827 0 1 0 -0.00597568 -5.2169e-05 0.00176846 69.3645 -30.606 -40.0485 
2532 159 2 12.01 0.14 19.7748 2.29135 2.1332 19.7748 51.4737 51.3156 0 1 1 0.0125316 -0.00222936 0.00409876 63.0879 4.9768 -48.6916 
9674 606 8 19 -0.16 22.4158 6.12689 2.7593 22.4158 55.3092 51.9416 0 1 1 0.00592472 0.00232678 0.00629996 -2.01114 9.72672 -8.90191 
2536 159 3 1.008 0.03 19.8011 3.81182 3.81779 19.8011 52.9942 53.0001 0 1 1 0.00426025 0.00397394 0.00159937 17.8285 -8.20862 35.985 
2531 159 2 12.01 0.14 19.2819 3.46571 2.98516 19.2819 52.6481 52.1675 0 1 1 -0.00133176 -0.000933528 0.00233149 -28.9934 31.4613 -83.558 
2535 159 3 1.008 0.03 19.3409 4.39337 2.32603 19.3409 53.5757 51.5084 0 1 1 -0.00100403 0.0125868 0.0239089 14.9129 -33.4605 12.6337 
10262 645 6 16 -0.53 23.5144 4.45303 6.88993 23.5144 53.6354 6.88993 0 1 0 -0.00474737 0.00978268 -0.00518998 -12.8325 14.648 10.1487 
2529 159 1 16 -0.4 17.8845 3.21469 3.08701 17.8845 52.397 52.2694 0 1 1 -0.00484549 0.00714623 0.00119701 -0.928582 -7.87792 14.4174 
2541 159 3 1.008 0.03 17.6271 5.25129 2.78303 17.6271 54.4336 51.9654 0 1 1 0.00508995 -0.00570928 0.00251969 -30.6509 -17.6726 30.0761 
10266 645 8 19 -0.16 22.6757 2.69148 4.73258 22.6757 51.8738 4.73258 0 1 0 0.000219329 -0.00303443 -0.00157707 7.28305 -24.8571 2.09915 
9670 606 6 16 -0.53 24.9007 4.24875 2.97421 24.9007 53.4311 52.1566 0 1 1 -0.00325796 0.0033031 -0.00360584 -10.0741 10.5043 4.41015 
9672 606 8 19 -0.16 22.6812 6.3165 0.586513 22.6812 55.4988 49.7689 0 1 1 -0.00416367 0.000919344 -0.0012731 -8.09192 -14.9123 16.519 
9233 578 1 16 -0.4 19.573 7.08627 2.44798 19.573 154.633 2.44798 0 3 0 -0.00583829 -0.00618368 -0.0020091 14.8625 -35.4689 10.0976 
1536 96 3 1.008 0.03 20.0555 1.37006 5.02486 20.0555 50.5524 54.2072 0 1 1 0.000406207 -0.00631806 0.0193564 -19.1946 -12.6712 11.3449 
1535 96 3 1.008 0.03 19.2585 0.707068 6.51343 19.2585 49.8894 55.6958 0 1 1 0.0231951 -0.00201641 -0.0215239 2.35298 -2.38669 8.58533 
9646 604 6 16 -0.53 20.9805 8.29576 6.29776 20.9805 57.4781 6.29776 0 1 0 0.00589662 0.00278337 0.00300264 1.45433 11.1002 -13.8894 
9243 578 3 1.008 0.03 18.0689 7.80261 3.64427 18.0689 155.35 3.64427 0 3 0 -0.0220932 -0.00455827 0.00252526 -16.0935 -7.13909 5.99829 
9237 578 2 12.01 0.11 19.1326 7.70575 3.63421 19.1326 155.253 3.63421 0 3 0 -0.00518424 0.00635428 0.00684168 24.9886 23.35 -15.2691 
9244 578 3 1.008 0.03 19.5424 7.0132 4.38599 19.5424 154.56 4.38599 0 3 0 -0.000607562 -0.0103971 0.0146457 -9.8277 14.1668 6.63799 
400 25 3 1.008 0.03 24.3308 6.38861 4.24921 24.3308 55.571 53.4316 0 1 1 0.000423484 0.0257897 0.00285723 -4.77983 -1.92021 -1.32172 
10264 645 8 19 -0.16 23.493 0.915719 5.69228 23.493 50.0981 5.69228 0 1 0 -0.0006047 0.00426634 -0.00191739 13.6696 -20.8681 -11.4427 
9240 578 3 1.008 0.03 19.5943 8.56552 1.12588 19.5943 156.113 1.12588 0 3 0 -0.0296699 0.00173216 -0.0226709 5.87628 7.1301 -6.04908 
9239 578 3 1.008 0.03 18.0431 7.79265 1.19253 18.0431 155.34 1.19253 0 3 0 -0.00705007 0.00504433 -0.0164619 20.3939 -0.984397 16.7652 
9235 578 2 12.01 0.14 19.146 7.5951 1.24183 19.146 155.142 1.24183 0 3 0 0.000465219 0.000831272 -0.00130945 -55.3147 31.6606 -19.2106 
8379 524 3 1.008 0.03 18.0707 5.54333 6.76021 116.435 103.908 6.76021 2 2 0 0.0008037 -0.0278885 -0.0123151 0.781176 2.47748 17.0069 
9412 589 2 12.01 0.14 0.969415 8.64857 4.52207 0.969415 8.64857 102.887 0 0 2 -0.000555074 -0.00340365 0.0031046 -23.1019 -11.3029 4.31049 
6586 412 3 1.008 0.03 6.78597 9.10166 6.04203 55.9683 9.10166 55.2244 1 0 1 0.0191694 -0.00344955 -0.0121905 -2.88366 6.02413 7.36049 
5819 364 3 1.008 0.03 2.78202 13.167 5.71445 101.147 13.167 5.71445 2 0 0 -0.00413773 -0.0220074 0.0144938 -26.95 -24.5928 -36.3525 
1068 67 3 1.008 0.03 3.6111 9.95887 0.902306 3.6111 9.95887 50.0847 0 0 1 0.0062275 0.00540037 0.0115668 2.58181 -8.16159 19.379 
2687 168 3 1.008 0.03 4.91801 16.0223 0.650576 -44.2643 65.2047 49.8329 -1 1 1 0.0170718 -0.0181516 0.00715367 22.5041 16.7047 10.3243 
5816 364 3 1.008 0.03 2.86387 16.2714 4.30963 101.229 16.2714 4.30963 2 0 0 0.00375637 -0.00401492 -0.00853741 4.69863 2.23412 -0.571545 
2462 154 3 1.008 0.03 2.88408 11.2376 3.27587 2.88408 11.2376 101.641 0 0 2 -0.0270311 0.00635428 -0.0075842 12.1 2.56264 11.8035 
5817 364 3 1.008 0.03 5.5053 15.1638 5.33875 103.87 15.1638 5.33875 2 0 0 -0.0161176 0.0175936 -0.00436538 15.4414 -10.1736 9.6692 
5812 364 2 12.01 0.14 5.03744 15.8302 4.66262 103.402 15.8302 4.66262 2 0 0 -0.0025643 -0.000904721 0.00250196 -22.7977 5.136 -24.9738 
5811 364 2 12.01 0.14 3.49779 15.4797 4.70424 101.862 15.4797 4.70424 2 0 0 0.000616202 2.39562e-05 -0.00532311 8.93848 -18.0886 -18.8029 
2454 154 2 12.01 0.11 3.9205 11.0836 3.64773 3.9205 11.0836 102.012 0 0 2 0.00420073 0.00304772 -0.000534138 -0.667329 37.4279 13.1691 
2463 154 3 1.008 0.03 4.32284 10.3282 3.02299 4.32284 10.3282 101.388 0 0 2 -0.00932224 0.0251229 -0.0035677 9.98261 -11.4921 -14.7625 
5815 364 3 1.008 0.03 3.22522 14.5585 4.12918 101.59 14.5585 4.12918 2 0 0 -0.00816104 0.0108667 -0.0137505 11.5643 22.6462 -5.27314 
2464 154 3 1.008 0.03 3.95096 10.6481 4.64781 3.95096 10.6481 103.013 0 0 2 0.00518721 0.0213181 0.0290721 -8.56779 0.149011 0.153957 
5818 364 3 1.008 0.03 5.54797 15.6944 3.64945 103.913 15.6944 3.64945 2 0 0 -0.00685314 0.0228182 -0.0201815 -23.5081 12.7338 29.3407 
2450 154 1 16 -0.4 4.71445 12.321 3.69249 4.71445 12.321 102.057 0 0 2 0.00419998 -0.00357393 0.00539871 -19.2399 -27.6426 -11.5155 
2452 154 2 12.01 0.14 6.08443 11.9763 3.71553 6.08443 11.9763 102.08 0 0 2 0.00330846 0.000279922 0.000330806 5.78084 -33.9755 -19.3606 
2455 154 3 1.008 0.03 6.49037 13.9329 2.97102 6.49037 13.9329 101.336 0 0 2 0.0274483 -0.0125396 0.0299224 22.0167 -25.6113 24.241 
2451 154 2 12.01 0.14 7.01605 13.138 3.61054 7.01605 13.138 101.975 0 0 2 -0.00414868 -0.00250116 -0.00468801 -19.0743 41.8898 -42.8148 
2456 154 3 1.008 0.03 7.92041 12.8983 3.04611 7.92041 12.8983 101.411 0 0 2 0.000931733 0.02967 0.0164501 -0.0430633 -6.92678 3.73889 
2453 154 2 12.01 0.11 8.3968 14.5188 4.86486 8.3968 14.5188 103.23 0 0 2 0.00192371 0.00131009 -0.00674744 -12.5019 -9.70219 11.2585 
2458 154 3 1.008 0.03 6.33833 11.5163 4.64294 6.33833 11.5163 103.008 0 0 2 0.00385026 0.0264377 -0.00533316 -2.47115 -15.0741 13.3819 
2457 154 3 1.008 0.03 6.29751 11.2067 2.91809 6.29751 11.2067 101.283 0 0 2 -0.0152838 0.0253695 -0.00316586 -0.7534 21.2733 14.5186 
2461 154 3 1.008 0.03 8.29927 15.3332 4.16045 8.29927 15.3332 102.525 0 0 2 0.00343442 0.00562136 -0.00345919 -5.07607 1.13327 -5.61994 
2449 154 1 16 -0.4 7.3297 13.5753 4.90937 7.3297 13.5753 103.274 0 0 2 0.0106228 -0.00371347 -0.00442919 9.86557 14.3559 -5.85088 
2459 154 3 1.008 0.03 8.44763 14.9164 5.86138 8.44763 14.9164 104.226 0 0 2 -0.00267466 -0.0146835 0.0235928 4.65941 8.72424 8.04959 
8111 507 3 1.008 0.03 7.4175 13.0519 0.413488 56.5998 13.0519 98.7782 1 0 2 -0.000834392 -0.0288776 -0.00326163 -8.53313 3.48066 12.5011 
6584 412 3 1.008 0.03 8.31382 8.83213 3.96598 57.4962 8.83213 53.1483 1 0 1 0.00658855 0.0010608 -0.0224768 -9.03501 2.62829 -10.54 
5809 364 1 16 -0.4 3.09819 15.1833 6.01952 101.463 15.1833 6.01952 2 0 0 0.00253944 0.00361487 0.00367672 5.19825 -9.71065 6.74521 
9417 589 3 1.008 0.03 1.6318 9.49041 4.49019 1.6318 9.49041 102.855 0 0 2 0.00292886 -0.0142759 0.0192006 8.69019 8.87756 -0.774001 
5820 364 3 1.008 0.03 4.35042 13.4409 6.2028 102.715 13.4409 6.2028 2 0 0 -0.0149013 -0.00191294 -0.00293227 17.1253 3.18964 -0.963023 
5806 363 3 1.008 0.03 6.47454 12.2508 7.07936 55.6569 61.4331 105.444 1 1 2 0.0044187 0.00724409 0.0138774 -8.72 -4.14731 -30.756 
5813 364 2 12.01 0.11 3.34606 13.7965 6.28045 101.711 13.7965 6.28045 2 0 0 0.00441595 -0.00100388 0.00369095 -17.2115 2.7488 84.9225 
5821 364 3 1.008 0.03 2.94409 13.4707 7.30926 101.309 13.4707 7.30926 2 0 0 -0.0123773 0.0234066 0.00127019 20.1152 21.2259 -32.142 
1185 75 1 16 -0.4 13.2079 10.818 6.89387 -35.9744 10.818 6.89387 -1 0 0 -0.00457091 0.00595922 -0.00138594 3.12617 25.0051 29.2443 
3661 229 3 1.008 0.03 14.3209 13.6934 6.60361 14.3209 62.8757 6.60361 0 1 0 -0.00725531 -0.0158157 0.00546423 -9.74133 20.8467 -12.9022 
8097 507 1 16 -0.4 10.7159 9.86217 0.942631 59.8982 9.86217 99.3073 1 0 2 0.000911387 -0.00416894 0.000988723 8.94745 29.9817 24.3572 
8544 534 3 1.008 0.03 16.1609 10.5024 3.11264 65.3432 10.5024 -46.0697 1 0 -1 0.0225832 -0.0106787 -0.00884915 -28.6868 -37.1806 -17.0127 
8105 507 3 1.008 0.03 10.5024 12.4954 1.71996 59.6847 12.4954 100.085 1 0 2 0.00533196 0.0076803 0.00183792 -13.6266 -4.67725 -24.3074 
8542 534 3 1.008 0.03 14.4508 10.0803 2.70099 63.6331 10.0803 -46.4814 1 0 -1 -0.0027646 0.0201781 -0.0202073 -5.8236 4.21861 1.45578 
1189 75 2 12.01 0.11 13.5754 9.88173 5.96898 -35.6069 9.88173 5.96898 -1 0 0 0.0032923 -0.00182001 0.00112835 7.14782 -18.7841 -8.15122 
8100 507 2 12.01 0.14 10.4814 12.3002 0.610136 59.6638 12.3002 98.9748 1 0 2 -0.000538493 0.00337194 -0.010446 6.51622 21.5202 19.0949 
2460 154 3 1.008 0.03 9.32502 14.0279 4.6692 9.32502 14.0279 103.034 0 0 2 0.0231295 -0.00290042 0.000664772 13.2509 -7.29294 -3.21588 
1195 75 3 1.008 0.03 13.2842 10.3133 5.03291 -35.8981 10.3133 5.03291 -1 0 0 0.00224172 0.00758557 -0.0235365 -2.02381 -2.74856 -15.1398 
3649 229 1 16 -0.4 15.2965 15.3027 5.62557 15.2965 64.485 5.62557 0 1 0 -0.00128511 -0.00483065 -0.000621108 -44.6687 10.7339 -9.48496 
3780 237 2 12.01 0.14 16.1667 15.9323 1.62795 16.1667 65.1146 1.62795 0 1 0 0.00544141 -0.00330956 0.00214318 7.4502 -11.159 -44.712 
3792 237 3 1.008 0.03 15.2844 13.5804 1.60958 15.2844 62.7627 1.60958 0 1 0 0.0139588 0.0125922 0.0253946 4.31699 10.6314 25.6546 
3782 237 2 12.01 0.11 15.6946 13.9513 2.5978 15.6946 63.1336 2.5978 0 1 0 -0.00154169 0.00261067 -0.00109127 -14.1257 13.6191 -29.0397 
3791 237 3 1.008 0.03 15.0403 13.6456 3.3735 15.0403 62.828 3.3735 0 1 0 0.0105978 0.00275425 -0.0252434 -4.14694 -24.1101 15.2357 
3778 237 1 16 -0.4 15.6399 15.365 2.8039 15.6399 64.5474 2.8039 0 1 0 -0.00604934 -0.00214904 -0.00182637 5.29477 -10.5728 -3.04584 
3785 237 3 1.008 0.03 15.8364 15.4284 0.675074 15.8364 64.6107 0.675074 0 1 0 -0.025725 0.0154364 0.00988469 0.924091 9.2497 21.9009 
1196 75 3 1.008 0.03 14.6427 9.65091 5.94174 -34.5396 9.65091 5.94174 -1 0 0 -2.63769e-06 -0.00185234 0.0124837 -0.790655 2.80861 1.72358 
9867 619 8 19 -0.16 12.4054 14.1367 3.65687 12.4054 63.3191 3.65687 0 1 0 -0.00807166 -0.00112201 0.00160495 -25.5919 -3.47704 8.45106 
9869 619 8 19 -0.16 10.8239 14.7748 2.28208 10.8239 63.9572 2.28208 0 1 0 0.00436204 -0.00280857 -0.000996703 -24.4483 -13.6657 1.35973 
9866 619 7 12.01 0.35 11.9638 15.0687 2.82487 11.9638 64.2511 2.82487 0 1 0 -0.00479699 0.00103694 -0.00856433 33.0349 23.1002 38.1461 
3790 237 3 1.008 0.03 16.7056 13.5814 2.65108 16.7056 62.7637 2.65108 0 1 0 -0.00208715 0.0026802 -0.0233126 7.148 -5.95264 10.0031 
9868 619 8 19 -0.16 12.8334 14.9538 1.89627 12.8334 64.1361 1.89627 0 1 0 0.00176491 0.00278903 -0.00644735 21.3443 3.82696 -38.1569 
1197 75 3 1.008 0.03 13.0169 8.9689 6.1758 -36.1655 8.9689 6.1758 -1 0 0 0.00532944 -0.00577009 0.00507131 -0.632472 -2.8245 -10.5454 
8543 534 3 1.008 0.03 15.4155 8.89833 3.50031 64.5979 8.89833 -45.682 1 0 -1 -0.016715 0.00645263 0.00076257 2.05147 -10.7196 8.18553 
3653 229 2 12.01 0.11 14.1411 14.778 6.34398 14.1411 63.9604 6.34398 0 1 0 -0.00609555 -0.00552827 0.0079262 15.8141 -29.0956 19.2767 
8534 534 2 12.01 0.11 15.4457 9.65969 2.74901 64.6281 9.65969 -46.4333 1 0 -1 0.0032289 -0.00723612 -0.00542557 26.3246 46.6682 11.7508 
8103 507 3 1.008 0.03 12.2751 11.2071 0.853788 61.4575 11.2071 99.2185 1 0 2 0.00651174 0.0208284 -0.00437085 -6.86675 -0.486381 -1.42097 
8530 534 1 16 -0.4 15.8483 9.13149 1.50436 65.0306 9.13149 -47.678 1 0 -1 0.00129705 -0.00502645 0.00167705 19.1073 -2.60307 2.39239 
3660 229 3 1.008 0.03 13.1957 14.8339 5.80709 13.1957 64.0163 5.80709 0 1 0 -0.00942236 0.0272327 -0.0264043 1.82437 1.99165 -2.63672 
3651 229 2 12.01 0.14 16.4667 14.7852 6.142 16.4667 63.9676 6.142 0 1 0 0.00216605 -0.00410908 0.00193059 -3.83224 -23.4835 31.2781 
3656 229 3 1.008 0.03 16.6961 13.8479 5.63513 16.6961 63.0302 5.63513 0 1 0 -0.011858 -0.0300749 -0.00443287 2.08222 2.3356 -2.81424 
3659 229 3 1.008 0.03 13.9917 15.2209 7.35034 13.9917 64.4033 7.35034 0 1 0 0.00334948 0.0138092 -0.00201694 6.4837 3.84547 -16.1167 
3655 229 3 1.008 0.03 16.245 14.5055 7.20002 16.245 63.6879 7.20002 0 1 0 -0.0205262 0.0151678 -0.0140702 24.8322 9.49634 -8.9209 
8532 534 2 12.01 0.14 14.8776 9.16894 0.493397 64.06 9.16894 -48.689 1 0 -1 0.0043701 -0.000463702 -0.00317003 -36.192 -11.8975 -2.21246 
9863 619 5 32.06 1.02 12.0624 16.7795 3.5509 12.0624 65.9619 3.5509 0 1 0 -0.00425745 -0.00328207 -0.000518386 19.1729 -25.244 -43.0488 
10466 677 9 24.305 2 15.5014 16.6943 4.28743 15.5014 65.8766 4.28743 0 1 0 0.00521701 -0.000725782 0.00447465 -20.9048 2.9224 -1.59589 
8537 534 3 1.008 0.03 14.4196 10.1636 0.413186 63.6019 10.1636 -48.7692 1 0 -1 -0.0131557 0.0216869 0.00959703 12.5362 -0.798277 -12.851 
9146 572 3 1.008 0.03 24.8497 13.7239 5.10177 123.214 62.9062 54.2841 2 1 1 -0.0136859 0.00436519 -0.0173127 11.6234 -5.97632 0.551646 
9148 572 3 1.008 0.03 21.9868 14.6191 0.745254 120.352 63.8014 49.9276 2 1 1 0.0336173 0.00536366 0.0420813 15.5423 -24.8416 27.1188 
3657 229 3 1.008 0.03 17.6398 16.5597 6.71363 17.6398 65.742 6.71363 0 1 0 -0.00820155 0.00851782 -0.0111944 -11.9049 14.4831 9.32841 
5053 316 3 1.008 0.03 17.0385 11.644 0.654792 115.403 -37.5383 -97.7099 2 -1 -2 0.0109332 -0.0035015 -0.0217567 4.17514 1.88683 -4.64409 
3786 237 3 1.008 0.03 17.2605 15.9274 1.47553 17.2605 65.1097 1.47553 0 1 0 -0.00748286 -0.00542573 0.000429495 -10.1745 0.148633 19.6487 
9245 578 3 1.008 0.03 19.5271 8.75841 3.69883 19.5271 156.305 3.69883 0 3 0 0.0045744 -0.0215948 0.0152314 -1.89389 -25.2917 3.68814 
3979 249 3 1.008 0.03 21.7605 8.79991 1.70275 70.9428 -40.3824 198.432 1 -1 4 -0.00330714 0.00524434 -0.0171569 -9.57048 17.7706 -0.494873 
3973 249 2 12.01 0.11 22.1972 9.81732 1.65431 71.3795 -39.365 198.384 1 -1 4 -0.000900719 -0.000655418 -0.00261633 23.5038 -44.8768 13.4007 
9641 604 7 12.01 0.35 19.6081 12.9491 4.68078 19.6081 62.1315 4.68078 0 1 0 0.00364493 0.00100514 -0.002458 55.7764 -33.1257 12.8026 
9645 604 5 32.06 1.02 21.0344 9.70024 6.64924 21.0344 58.8826 6.64924 0 1 0 0.00135267 -0.00256125 -0.00139806 -1.31711 20.1784 -18.0791 
9643 604 8 19 -0.16 20.3823 12.3571 3.73704 20.3823 61.5394 3.73704 0 1 0 0.00337125 -0.00818723 0.00399489 -14.2322 22.2309 14.5858 
3658 229 3 1.008 0.03 18.4946 15.4319 5.90478 18.4946 64.6142 5.90478 0 1 0 -0.0137536 -0.0115189 0.0197633 6.7189 -16.006 5.24976 
9651 604 8 19 -0.16 23.1597 9.99975 4.98312 23.1597 59.1821 4.98312 0 1 0 0.00126657 -0.00104447 0.00545968 -13.3134 -3.40587 0.287326 
9648 604 7 12.01 0.35 22.7757 10.2466 6.23011 22.7757 59.4289 6.23011 0 1 0 0.00411813 -0.00357652 -0.00520958 18.2664 -21.1948 7.60297 
9637 604 4 14.01 -0.66 20.2308 10.7194 5.7266 20.2308 59.9018 5.7266 0 1 0 -0.00671274 -0.00592101 -0.00123691 30.1487 -52.8482 -25.8189 