ITEM: TIMESTEP
4650000
ITEM: NUMBER OF ATOMS
10479
ITEM: BOX BOUNDS pp pp pp
4.0882558190751794e-01 4.9591174418091420e+01
4.0882558190751794e-01 4.9591174418091420e+01
4.0882558190751794e-01 4.9591174418091420e+01
ITEM: ATOMS id mol type mass q x y z xu yu zu ix iy iz vx vy vz fx fy fz 
1419 89 3 1.008 0.03 2.16958 3.96298 6.14206 -47.0128 53.1453 55.3244 -1 1 1 0.0133015 0.0182466 0.0102442 -11.8016 -2.23858 23.0252 
1413 89 2 12.01 0.11 3.11896 3.78733 5.70179 -46.0634 52.9697 54.8841 -1 1 1 0.00176388 0.000237166 0.00289294 40.2865 4.94932 -68.2461 
5929 371 3 1.008 0.03 0.983977 4.63096 1.16688 0.983977 102.996 99.5316 0 2 2 -0.0188826 0.00240749 0.000619996 -1.22076 -3.263 2.33171 
9169 574 1 16 -0.4 4.50442 8.22613 0.877569 4.50442 8.22613 -48.3048 0 0 -1 -0.00792339 -0.00983771 0.000100245 28.9861 0.337724 2.1404 
1421 89 3 1.008 0.03 2.88822 3.43427 4.66464 -46.2941 52.6166 53.847 -1 1 1 0.0165839 -0.00424127 0.0111689 -1.26479 1.22987 21.4627 
9177 574 3 1.008 0.03 4.1446 7.22089 3.70513 4.1446 7.22089 -45.4772 0 0 -1 0.000893084 0.00146074 -0.00365719 -3.06624 10.4725 2.54928 
9171 574 2 12.01 0.14 4.1875 7.0281 1.59212 4.1875 7.0281 -47.5902 0 0 -1 0.00869107 -0.000768946 -0.00459001 4.01658 20.2107 -25.9649 
9172 574 2 12.01 0.14 3.43118 7.25972 2.88326 3.43118 7.25972 -46.2991 0 0 -1 -0.00206612 0.00118456 0.00698589 16.0002 -30.4004 6.49751 
7238 453 2 12.01 0.11 7.66009 3.03113 4.60054 106.025 101.396 53.7829 2 2 1 -0.0021312 0.0023733 0.00203002 -4.66624 21.297 29.0198 
6688 418 3 1.008 0.03 6.77952 7.65889 3.60947 105.144 -90.7058 52.7918 2 -2 1 0.00350145 0.010257 -0.00925309 -2.20656 -2.7762 -3.34796 
1409 89 1 16 -0.4 4.09582 2.86484 6.19002 -45.0865 52.0472 55.3724 -1 1 1 0.0013105 -0.00183831 -0.00470122 -15.9796 0.621246 8.89895 
1420 89 3 1.008 0.03 3.64277 4.7265 5.42179 -45.5396 53.9088 54.6041 -1 1 1 0.0118294 -0.0107964 0.0233251 -10.9925 -5.99829 14.6344 
9183 574 3 1.008 0.03 0.882138 7.35817 4.00183 0.882138 7.35817 -45.1805 0 0 -1 -0.000594129 0.0230271 -0.035451 3.72648 0.158897 -7.3962 
7247 453 3 1.008 0.03 6.61454 2.76838 4.63721 104.979 101.133 53.8196 2 2 1 0.0205843 -0.0133668 -0.0207807 -6.01889 -10.4169 -12.6026 
7246 453 3 1.008 0.03 8.23811 2.63105 3.80954 106.603 100.996 52.9919 2 2 1 0.00783045 -0.00511275 -0.024481 4.39683 -17.3174 -16.9834 
9002 563 3 1.008 0.03 5.42148 3.71731 0.806691 54.6038 52.8997 99.1714 1 1 2 -0.00131651 0.0204958 0.00216091 -4.001 9.58066 -6.74384 
7234 453 1 16 -0.4 8.18553 2.66949 5.87524 106.55 101.034 55.0576 2 2 1 0.00787627 -0.00285546 0.00162908 4.12625 4.50156 -5.82023 
7438 465 3 1.008 0.03 3.29746 0.772963 4.21808 101.662 99.1377 4.21808 2 2 0 0.0199037 0.0113415 -0.0236847 -14.2216 -28.6447 -4.67526 
9178 574 3 1.008 0.03 2.93561 8.16757 2.76364 2.93561 8.16757 -46.4187 0 0 -1 -0.00596439 0.0205597 0.0118984 -12.6272 33.4344 7.19406 
9170 574 1 16 -0.4 2.45493 6.26007 3.10804 2.45493 6.26007 -46.0743 0 0 -1 0.0032638 0.000805031 0.00308241 -3.26534 -8.73647 -10.974 
9176 574 3 1.008 0.03 5.03464 6.35755 1.62231 5.03464 6.35755 -47.56 0 0 -1 0.00132928 0.0204991 0.0111755 -0.819379 -11.2062 9.31607 
9174 574 2 12.01 0.11 1.5864 6.54502 4.18591 1.5864 6.54502 -44.9964 0 0 -1 -0.00736517 -0.00193034 -0.00718498 -13.1845 -12.3173 37.3395 
6678 418 2 12.01 0.11 6.90112 8.2295 4.5225 105.266 -90.1352 53.7048 2 -2 1 0.00083409 0.00163673 -0.0115978 13.2373 -16.9624 1.10189 
7248 453 3 1.008 0.03 7.66911 4.10175 4.40151 106.034 102.466 53.5839 2 2 1 0.0431617 -0.00385954 0.0100068 -0.623308 2.72039 6.26528 
9001 563 3 1.008 0.03 6.5922 2.60154 1.50953 55.7745 51.7839 99.8742 1 1 2 -0.00855834 0.0285774 0.0260094 -6.09616 35.53 -43.3793 
8996 563 2 12.01 0.14 6.34802 3.22468 0.545753 55.5304 52.407 98.9105 1 1 2 -0.00506979 -0.00315209 0.00193322 26.6351 -43.5403 79.4598 
9175 574 3 1.008 0.03 3.47251 6.67259 0.8818 3.47251 6.67259 -48.3005 0 0 -1 -0.0253375 -0.0167181 -0.0177695 -7.19844 -18.4844 -5.80056 
6682 418 3 1.008 0.03 5.41317 8.06761 6.75869 103.778 -90.2971 55.941 2 -2 1 -0.00696888 0.0161034 0.00277281 -10.8359 -16.101 2.13821 
7433 465 3 1.008 0.03 1.26734 1.22735 2.76859 99.632 99.592 2.76859 2 2 0 0.0221797 -0.0141388 0.0160179 -2.30558 7.07502 -1.94657 
9184 574 3 1.008 0.03 0.933095 5.64471 4.46821 0.933095 5.64471 -44.7141 0 0 -1 0.0241348 -0.0028731 0.0217275 26.3434 27.9815 -9.29316 
9006 563 3 1.008 0.03 6.17201 0.422744 0.706572 55.3544 49.6051 99.0713 1 1 2 0.0432282 0.0101248 -0.0110071 6.82888 3.53451 -6.89094 
6687 418 3 1.008 0.03 7.40284 7.52862 5.24624 105.768 -90.8361 54.4286 2 -2 1 -0.00936103 -0.0032973 -0.0096471 -17.5135 17.6 -7.48456 
9182 574 3 1.008 0.03 2.19148 6.88771 5.06963 2.19148 6.88771 -44.1127 0 0 -1 0.013 0.0127192 -0.00368617 -13.7872 -12.9698 -14.4327 
9173 574 2 12.01 0.11 5.90763 8.32591 0.469094 5.90763 8.32591 -48.7133 0 0 -1 0.00195643 -0.00232268 0.00406856 -5.95662 -31.7401 32.1931 
8993 563 1 16 -0.4 8.25931 4.69483 1.30327 57.4417 53.8772 99.668 1 1 2 0.0021335 0.000531312 -0.0060296 -47.2368 -28.7798 -8.4163 
1416 89 3 1.008 0.03 5.12217 4.24653 7.36718 -44.0602 53.4289 56.5495 -1 1 1 0.00924522 0.00966641 -0.00025504 4.99973 0.458969 -9.79624 
7114 445 3 1.008 0.03 7.07039 0.471464 7.41698 56.2527 -147.076 -140.13 1 -3 -3 -0.0135083 0.0126437 -0.00534853 -18.4132 11.9348 -11.3729 
1411 89 2 12.01 0.14 4.70733 3.24285 7.41467 -44.475 52.4252 56.597 -1 1 1 -0.00080831 0.0023823 -0.00634882 -3.73464 -3.26362 32.9529 
7245 453 3 1.008 0.03 12.5494 0.664948 6.81633 110.914 99.0296 55.9987 2 2 1 -0.00503022 0.00574851 -0.0108802 3.59763 -1.96399 -5.87261 
2988 187 3 1.008 0.03 15.8371 8.17374 1.91106 65.0194 8.17374 100.276 1 0 2 -0.0172291 -0.0232144 0.0198694 -3.45458 25.3545 -0.24972 
8997 563 2 12.01 0.11 9.31379 5.43951 0.868658 58.4961 54.6219 99.2334 1 1 2 -0.00284251 0.0053831 0.0039779 61.3632 0.312315 -0.101452 
2167 136 3 1.008 0.03 9.74017 0.421841 4.93941 108.105 0.421841 54.1218 2 0 1 -0.0158333 0.00652963 0.00941951 -2.76883 39.422 35.9638 
2428 152 3 1.008 0.03 12.5645 1.58388 2.19826 -134.983 50.7662 100.563 -3 1 2 0.0325996 -0.00823062 0.014046 -6.1245 1.86514 -2.29621 
7241 453 3 1.008 0.03 8.89715 4.42835 6.70525 107.262 102.793 55.8876 2 2 1 -0.0316703 -0.00954794 0.00697985 -8.44859 3.7399 -3.95379 
2421 152 2 12.01 0.11 11.9808 2.51397 2.20285 -135.566 51.6963 100.568 -3 1 2 -0.000226735 -0.00644589 0.000695245 16.9952 -3.7985 57.1038 
2419 152 2 12.01 0.14 13.8546 4.01935 1.88675 -133.692 53.2017 100.251 -3 1 2 0.00129521 -0.00215939 -0.0093567 -9.7358 -25.4319 29.4828 
4685 293 3 1.008 0.03 9.25822 6.05048 4.42238 -39.9241 55.2328 53.6047 -1 1 1 -0.00151166 -0.023873 -0.00676166 25.0354 -1.48929 3.05207 
4676 293 2 12.01 0.14 13.1042 7.43356 5.89562 -36.0782 56.6159 55.078 -1 1 1 0.00271809 0.011746 0.00451102 -1.04725 54.4202 -28.7115 
4674 293 1 16 -0.4 14.0809 7.34616 4.8749 -35.1015 56.5285 54.0573 -1 1 1 0.0043976 -0.00160388 -0.000765304 -16.4886 4.19831 -22.6333 
4687 293 3 1.008 0.03 15.6451 7.17995 6.12549 -33.5373 56.3623 55.3078 -1 1 1 -0.0182687 -0.00182829 0.0196608 11.5522 1.13584 -7.81719 
4688 293 3 1.008 0.03 15.1535 5.64324 5.44206 -34.0289 54.8256 54.6244 -1 1 1 0.0417679 0.0276798 -0.0103102 -1.14199 5.44793 -5.50272 
4678 293 2 12.01 0.11 15.2872 6.70842 5.20499 -33.8951 55.8908 54.3873 -1 1 1 -0.00424201 0.00512869 0.00416855 -4.38923 -5.52015 10.5508 
4686 293 3 1.008 0.03 15.946 6.81092 4.32997 -33.2363 55.9933 53.5123 -1 1 1 -0.0115026 0.0130761 -0.00475092 3.84404 -0.693079 11.6539 
4684 293 3 1.008 0.03 10.9767 5.92108 3.81644 -38.2056 55.1034 52.9988 -1 1 1 0.0134569 -0.00969147 0.00867706 7.54764 -0.402271 7.42459 
4677 293 2 12.01 0.11 10.2551 6.55413 4.32851 -38.9272 55.7365 53.5109 -1 1 1 0.00251654 -0.0035977 0.00233038 -52.2299 22.3276 -8.77464 
4675 293 2 12.01 0.14 11.7509 8.08601 5.40093 -37.4315 57.2684 54.5833 -1 1 1 -0.00233668 -0.00173802 0.00475334 -18.0837 -18.5725 4.56479 
4682 293 3 1.008 0.03 13.113 6.52171 6.38275 -36.0694 55.7041 55.5651 -1 1 1 -0.0228154 0.00392591 -0.0012357 -21.1267 -31.4964 18.3858 
4673 293 1 16 -0.4 10.5784 7.21518 5.5429 -38.6039 56.3975 54.7252 -1 1 1 0.00245041 -0.00302844 -0.000903117 35.913 3.91169 -4.00979 
4681 293 3 1.008 0.03 13.4462 8.20805 6.57868 -35.7361 57.3904 55.761 -1 1 1 -0.00233249 -0.0336672 -0.00273636 10.7052 -7.78526 7.77279 
2983 187 3 1.008 0.03 13.5154 8.57265 2.09401 62.6977 8.57265 100.459 1 0 2 0.0361423 -0.017689 0.0160743 -2.04298 3.27017 -3.01284 
4683 293 3 1.008 0.03 9.93053 7.37633 3.65887 -39.2518 56.5587 52.8412 -1 1 1 0.00437557 -0.00437925 -0.0113401 12.9906 -11.2447 -0.0476552 
4679 293 3 1.008 0.03 11.7729 8.55061 4.38412 -37.4095 57.733 53.5665 -1 1 1 0.0201717 -0.0241463 0.0125177 7.05407 -7.69064 16.8202 
2426 152 3 1.008 0.03 15.0768 5.72983 1.52178 -132.47 54.9122 99.8865 -3 1 2 0.00621805 0.0224028 0.0174476 -18.4993 -8.51214 -7.65376 
7233 453 1 16 -0.4 11.0414 2.06373 6.52086 109.406 100.428 55.7032 2 2 1 -0.00176 0.00739254 -0.00282882 11.7444 -21.7157 -18.317 
2423 152 3 1.008 0.03 13.5982 4.54427 2.79867 -133.949 53.7266 101.163 -3 1 2 -0.00713596 -0.000582488 -0.000434264 0.350195 6.93679 2.79816 
7242 453 3 1.008 0.03 9.88752 3.81309 5.44476 108.252 102.178 54.6271 2 2 1 0.00624641 -0.00303248 0.005852 7.80512 8.27143 -29.2439 
7236 453 2 12.01 0.14 9.2578 3.52127 6.23237 107.623 101.886 55.4147 2 2 1 0.000391353 0.00186131 -0.0043751 1.51835 -4.29803 39.8194 
2429 152 3 1.008 0.03 11.939 2.85239 3.27543 -135.608 52.0347 101.64 -3 1 2 0.00180026 0.00378063 0.0208922 3.50507 -5.61454 -22.6099 
2424 152 3 1.008 0.03 14.5735 3.26171 2.22051 -132.974 52.4441 100.585 -3 1 2 0.0277297 0.00660159 0.0143453 -5.61981 -2.10063 -4.15 
2417 152 1 16 -0.4 12.619 3.47617 1.42121 -134.928 52.6585 99.7859 -3 1 2 -0.00671637 -0.00392846 -0.00291505 2.04406 18.4726 -32.4366 
7235 453 2 12.01 0.14 10.2235 2.90085 7.25045 108.588 101.266 56.4328 2 2 1 -0.0037933 0.00554171 -0.00502256 1.4863 14.553 -4.64579 
2420 152 2 12.01 0.14 14.5287 4.95412 0.929332 -133.018 54.1365 99.294 -3 1 2 -0.00122767 -0.000607928 -0.000728387 8.79744 38.2183 -26.3781 
7237 453 2 12.01 0.11 12.0536 1.48849 7.31131 110.418 99.8532 56.4937 2 2 1 -0.00156151 0.0076084 0.00561976 -17.7142 1.09879 25.6706 
2169 136 3 1.008 0.03 8.72094 0.470318 2.46468 107.086 0.470318 51.647 2 0 1 0.00630772 -0.0124525 0.0192566 -14.3466 -13.2597 25.7471 
9003 563 3 1.008 0.03 9.9292 5.65628 1.79226 59.1116 54.8386 100.157 1 1 2 -0.0198585 -0.0367673 -0.0165389 -16.4932 6.14769 -27.806 
2427 152 3 1.008 0.03 10.9474 2.33194 1.97338 -136.6 51.5143 100.338 -3 1 2 -0.020896 0.025663 0.0060455 -7.95018 -2.88569 -13.6261 
9599 601 8 19 -0.16 15.1127 3.8068 6.99051 -34.0697 52.9891 6.99051 -1 1 0 -0.00295142 -0.000118243 0.00223714 0.660471 -28.2738 3.81294 
4551 285 3 1.008 0.03 16.4943 1.78929 0.506055 16.4943 149.336 -48.6763 0 3 -1 0.0120115 0.0208474 0.0299933 14.4889 -10.3371 -8.59455 
9963 625 7 12.01 0.35 24.9594 1.02772 5.71902 -24.2229 50.2101 5.71902 -1 1 0 -0.00239685 0.00137456 -0.00765899 -4.76511 -6.87847 -14.2861 
8597 538 2 12.01 0.11 20.9134 0.435593 4.05629 -28.269 49.6179 4.05629 -1 1 0 0.0014273 -0.00289583 -0.00181841 23.8681 40.4966 4.46607 
9592 601 4 14.01 -0.66 17.4741 1.99011 6.79327 -31.7082 51.1725 6.79327 -1 1 0 -0.00213252 0.000339969 0.0053402 3.6138 -15.7374 -10.5427 
7338 459 3 1.008 0.03 19.1682 3.64333 1.43631 -79.1965 151.19 50.6187 -2 3 1 -0.0035336 0.0282175 -0.0279046 5.17203 4.78741 8.7136 
9950 624 8 19 -0.16 24.8683 4.70083 6.7271 24.8683 53.8832 6.7271 0 1 0 -0.00524034 0.000740502 0.00104818 9.8135 17.5573 8.94571 
9964 625 8 19 -0.16 24.1546 1.56407 4.79256 -25.0278 50.7464 4.79256 -1 1 0 0.00340047 0.000280667 -0.000658213 5.69151 -7.64796 10.454 
8603 538 3 1.008 0.03 20.8248 1.44375 4.54872 -28.3576 50.6261 4.54872 -1 1 0 0.00485376 0.00255585 -0.00561503 -0.785831 -20.8066 -21.4675 
4031 252 3 1.008 0.03 24.5871 7.88707 2.53776 24.5871 57.0694 51.7201 0 1 1 0.00476176 -0.0261762 -0.00155313 21.4261 25.9038 8.42306 
4022 252 2 12.01 0.11 23.7833 7.2838 2.2757 23.7833 56.4661 51.458 0 1 1 -0.0016565 -0.00392667 -0.00290079 -29.1454 -25.4811 0.689333 
7344 459 3 1.008 0.03 17.7738 3.6822 4.71109 -80.5909 151.229 53.8934 -2 3 1 0.0167303 -0.0191961 -0.00230835 -7.01255 3.98388 8.85217 
4024 252 3 1.008 0.03 21.6435 7.88044 6.32622 21.6435 57.0628 55.5086 0 1 1 0.00420814 0.0174324 0.00941707 -1.20753 -15.0165 -27.6752 
4026 252 3 1.008 0.03 23.3956 6.47337 4.70422 23.3956 55.6557 53.8866 0 1 1 -0.00573191 0.0138651 0.0156549 -8.07727 -0.993375 0.954285 
4020 252 2 12.01 0.14 22.7922 7.35156 4.44663 22.7922 56.5339 53.629 0 1 1 -0.00403286 -0.000519098 0.00432855 -4.15842 6.9919 -12.957 
4018 252 1 16 -0.4 22.5932 7.48478 2.99621 22.5932 56.6671 52.1786 0 1 1 0.00346375 -0.00052015 0.00651321 -2.27726 4.28321 41.4672 
4025 252 3 1.008 0.03 23.4129 8.19197 4.74452 23.4129 57.3743 53.9269 0 1 1 0.0144407 0.00739488 0.0227318 2.43132 1.86936 -0.0385261 
4019 252 2 12.01 0.14 21.4695 7.47253 5.27963 21.4695 56.6549 54.462 0 1 1 -0.000929019 -0.0103105 0.000935399 -22.1209 16.8836 -7.74344 
4017 252 1 16 -0.4 20.7551 6.21133 5.30666 20.7551 55.3937 54.489 0 1 1 -0.000566512 0.00219814 -0.000258549 18.6726 12.1258 -2.62916 
4021 252 2 12.01 0.11 19.5019 6.29512 5.94653 19.5019 55.4775 55.1289 0 1 1 0.00192257 -0.00521503 0.00474122 10.8735 -5.34681 -1.81198 
7870 492 3 1.008 0.03 21.9006 3.44527 6.46919 -27.2817 52.6276 6.46919 -1 1 0 0.000263885 -0.013038 -0.00638521 6.6294 -2.73948 -7.64396 
7871 492 3 1.008 0.03 20.2353 2.9216 5.96322 -28.9471 52.104 5.96322 -1 1 0 0.0123936 -8.80588e-05 0.0115006 10.713 13.1675 12.8802 
7862 492 2 12.01 0.11 20.9287 3.12167 6.81413 -28.2536 52.304 6.81413 -1 1 0 0.00636211 -0.00483306 0.00243432 -21.9309 17.1122 -7.13607 
9600 601 5 32.06 1.02 17.9021 0.497695 6.43871 -31.2803 49.68 6.43871 -1 1 0 0.00101049 -0.00185989 -0.00205693 -11.7412 18.8597 23.1646 
7333 459 2 12.01 0.11 22.9291 3.09831 2.59292 -75.4356 150.645 51.7753 -2 3 1 0.0107568 -0.00119305 -0.008669 -31.5385 -59.8718 -33.5726 
7341 459 3 1.008 0.03 23.0576 3.41588 3.60697 -75.3071 150.963 52.7893 -2 3 1 -0.00182234 -0.0100708 -0.000470106 8.39376 2.87658 12.5735 
7339 459 3 1.008 0.03 23.0341 1.95192 2.4216 -75.3306 149.499 51.6039 -2 3 1 0.00680913 0.000422168 -0.0225193 12.3924 50.9459 14.7394 
7329 459 1 16 -0.4 21.558 3.19767 2.24127 -76.8067 150.745 51.4236 -2 3 1 0.00431051 0.00385265 -0.00144892 12.1537 -5.36859 2.52588 
7342 459 3 1.008 0.03 17.1654 4.25341 3.1437 -81.1993 151.8 52.326 -2 3 1 -0.0209405 -0.0384739 0.00999745 15.4386 -7.99649 8.39887 
4028 252 3 1.008 0.03 19.6899 6.58586 6.98534 19.6899 55.7682 56.1677 0 1 1 -0.0118534 0.0211821 -0.000375183 -10.8974 3.08645 -1.85429 
4023 252 3 1.008 0.03 20.8009 8.22951 4.75576 20.8009 57.4119 53.9381 0 1 1 0.0115655 0.0270259 0.0266707 19.5729 -19.4489 16.4205 
7343 459 3 1.008 0.03 17.724 2.62375 3.45912 -80.6407 150.171 52.6415 -2 3 1 -0.0222134 0.0051759 -0.0305869 5.24238 -31.6788 -16.3485 
7334 459 2 12.01 0.11 17.9399 3.62507 3.65127 -80.4248 151.172 52.8336 -2 3 1 0.00516297 0.010182 -0.00371366 -16.5309 43.0389 7.41212 
4027 252 3 1.008 0.03 19.0133 5.33094 5.91324 19.0133 54.5133 55.0956 0 1 1 -0.0164417 -0.00480139 0.0431744 0.654493 -6.09158 5.08097 
7330 459 1 16 -0.4 19.2648 4.10047 3.505 -79.0999 151.648 52.6873 -2 3 1 -0.00185976 -1.22967e-05 0.00498318 2.84138 -12.2126 -11.1272 
4029 252 3 1.008 0.03 18.8406 6.93946 5.38656 18.8406 56.1218 54.5689 0 1 1 0.00852718 -0.0460553 0.00572454 -3.39667 12.1985 3.84756 
4359 273 3 1.008 0.03 20.0543 7.7728 1.80638 20.0543 7.7728 198.536 0 0 4 -0.00378773 0.00833615 0.0189874 -4.65015 -5.45249 -14.1273 
4556 285 3 1.008 0.03 18.8006 1.08621 1.75988 18.8006 148.633 -47.4225 0 3 -1 -0.00691879 0.0131179 -0.0043829 8.44844 9.66482 -6.80203 
7340 459 3 1.008 0.03 23.506 3.65315 1.86998 -74.8587 151.2 51.0523 -2 3 1 0.0174564 -0.0244014 0.0158613 11.6013 3.6385 -1.09368 
7337 459 3 1.008 0.03 19.1049 5.33009 1.95115 -79.2598 152.877 51.1335 -2 3 1 0.0112357 0.00604253 0.00246915 0.868781 2.78966 -6.71883 
8604 538 3 1.008 0.03 21.9434 0.41492 3.6438 -27.239 49.5973 3.6438 -1 1 0 0.00480112 0.0158313 0.0124278 -16.4676 -2.96501 -3.73114 
4032 252 3 1.008 0.03 24.076 6.27643 2.54948 24.076 55.4588 51.7318 0 1 1 -0.0435852 0.00217661 -0.012326 5.27072 -7.32455 -13.7651 
7331 459 2 12.01 0.14 21.1204 4.50606 1.98542 -77.2443 152.053 51.1678 -2 3 1 0.00680245 -0.00404308 -0.000775487 -18.204 12.5322 -4.15154 
7336 459 3 1.008 0.03 21.2869 4.80151 0.932908 -77.0778 152.349 50.1153 -2 3 1 0.00891681 -0.0117184 0.0164588 7.00325 -5.18688 11.1503 
7332 459 2 12.01 0.14 19.5899 4.3787 2.14896 -78.7748 151.926 51.3313 -2 3 1 -0.00539878 0.000600229 0.00420568 -2.73678 4.16594 1.86312 
7335 459 3 1.008 0.03 21.5603 5.2762 2.65173 -76.8044 152.823 51.8341 -2 3 1 0.00776669 -0.0143196 -0.00728597 -7.28073 -12.4238 -5.13192 
4030 252 3 1.008 0.03 23.5309 7.41001 1.22528 23.5309 56.5924 50.4076 0 1 1 -0.0111724 0.00977602 0.00555312 7.87079 -5.705 -3.68756 
4355 273 2 12.01 0.14 20.4011 7.844 0.755513 20.4011 7.844 197.485 0 0 4 0.00399581 0.00772826 -0.00338707 72.9124 -27.224 8.01253 
4360 273 3 1.008 0.03 21.251 7.02821 0.645779 21.251 7.02821 197.375 0 0 4 -0.00356248 0.0193179 -0.0041825 -52.3472 39.1383 1.46163 
7784 487 3 1.008 0.03 2.05328 14.085 0.724078 51.2356 14.085 0.724078 1 0 0 0.0128151 0.0125087 -0.017271 1.40756 0.0664637 1.73665 
2055 129 3 1.008 0.03 7.47575 13.6982 1.03271 56.6581 62.8805 50.2151 1 1 1 0.0142748 0.0198687 -0.00642911 -14.4918 3.112 2.85484 
9180 574 3 1.008 0.03 6.47969 8.89589 1.24676 6.47969 8.89589 -47.9356 0 0 -1 -0.00500535 -0.0102562 0.0185462 -7.64604 -19.1353 -12.514 
6686 418 3 1.008 0.03 7.58652 9.01393 4.24147 105.951 -89.3508 53.4238 2 -2 1 0.00239937 0.0397419 0.0176067 7.21566 5.96374 4.03213 
6674 418 1 16 -0.4 5.64954 8.80727 4.8427 104.014 -89.5574 54.025 2 -2 1 0.00520359 -0.00214894 0.000720099 -9.80001 7.52177 19.3176 
6677 418 2 12.01 0.11 1.90405 9.77824 6.53472 100.269 -88.5865 55.7171 2 -2 1 -0.00239268 -0.00167824 -0.00288448 -3.20181 -17.4185 -93.2818 
9226 577 3 1.008 0.03 0.62275 12.1658 1.58348 49.8051 -37.0165 50.7658 1 -1 1 -0.0125738 0.00618205 0.00318265 -14.6229 -13.3268 -2.38225 
9225 577 3 1.008 0.03 0.809504 10.5632 1.13152 49.9919 -38.6191 50.3139 1 -1 1 -0.00510057 -0.00305307 0.0218862 -1.31464 -10.6091 -5.76144 
383 24 3 1.008 0.03 2.74947 12.8998 5.02738 150.297 -36.2825 5.02738 3 -1 0 -0.0157983 0.0154951 0.0412397 14.4343 10.5647 2.55689 
2052 129 2 12.01 0.14 6.14901 11.9777 1.48367 55.3314 61.16 50.666 1 1 1 -0.00434372 0.00445668 0.000829837 3.68234 13.8434 56.744 
2064 129 3 1.008 0.03 4.06324 10.6728 2.52786 53.2456 59.8552 51.7102 1 1 1 -0.0222379 -0.00385107 -0.00785838 -6.59765 -31.7446 -5.11357 
2063 129 3 1.008 0.03 3.29808 12.1755 3.16483 52.4804 61.3578 52.3472 1 1 1 -0.00451647 -0.0108874 -0.0197799 25.6398 -24.0267 -21.05 
370 24 1 16 -0.4 2.82082 15.0725 4.71666 150.368 -34.1099 4.71666 3 -1 0 0.00119794 -0.00243613 -0.00144452 26.8499 -27.7435 -0.0507497 
374 24 2 12.01 0.11 2.42314 13.8784 5.38872 149.97 -35.3039 5.38872 3 -1 0 0.00439609 -0.00129801 0.00497477 -35.2622 3.63572 -17.6884 
2062 129 3 1.008 0.03 4.81866 11.6844 3.76658 54.001 60.8668 52.9489 1 1 1 0.00429896 0.00772481 -0.0131391 11.4908 -6.51383 3.4445 
377 24 3 1.008 0.03 4.60561 15.8363 4.02583 152.153 -33.3461 4.02583 3 -1 0 0.00562303 -0.0048296 -0.0155292 0.696526 -15.9628 10.9264 
372 24 2 12.01 0.14 4.24826 15.2565 4.90921 151.795 -33.9259 4.90921 3 -1 0 -0.000684888 -0.00113515 -0.00773296 -34.0535 45.7019 -20.9051 
2054 129 2 12.01 0.11 4.25826 11.6473 2.8463 53.4406 60.8296 52.0286 1 1 1 -0.00795022 -0.00688769 -0.00203833 -42.4196 46.8988 30.0478 
6685 418 3 1.008 0.03 1.91137 10.6015 5.73398 100.276 -87.7631 54.9163 2 -2 1 -0.00872661 0.00244003 -0.0183097 1.27362 -27.3055 28.4542 
378 24 3 1.008 0.03 4.82262 14.3891 5.06052 152.37 -34.7932 5.06052 3 -1 0 0.0225587 0.00310873 0.0151384 9.95055 -26.8202 -6.06094 
2058 129 3 1.008 0.03 6.66093 11.9412 2.51192 55.8433 61.1235 51.6943 1 1 1 0.0420072 -0.0130638 0.0120601 -4.02058 -2.09631 -41.7933 
2050 129 1 16 -0.4 4.81563 12.3977 1.82269 53.998 61.58 51.005 1 1 1 -0.000516929 0.00279008 -0.00249894 23.4274 12.8388 -21.5944 
6683 418 3 1.008 0.03 1.03203 9.12299 6.2328 99.3967 -89.2417 55.4152 2 -2 1 0.0126742 -0.00884397 -0.0198778 24.4409 12.4033 9.10809 
1312 82 3 1.008 0.03 8.41816 15.8686 4.51101 106.783 -33.3137 102.876 2 -1 2 0.0169068 -0.0184543 -0.0121819 -7.4414 9.82907 19.3824 
1302 82 2 12.01 0.11 8.24579 16.0016 3.46758 106.61 -33.1808 101.832 2 -1 2 0.0106209 -0.00923441 -0.00644878 63.6364 -40.8443 16.4342 
1310 82 3 1.008 0.03 8.15929 14.9588 3.18086 106.524 -34.2236 101.546 2 -1 2 -0.00467171 0.00834105 0.0143984 -17.6807 0.354172 -11.3212 
1305 82 3 1.008 0.03 7.4504 16.1554 1.21142 105.815 -33.027 99.5761 2 -1 2 0.0244727 -0.0119846 0.0205761 4.26096 -2.30127 4.23905 
8122 508 3 1.008 0.03 6.95965 13.8158 5.57869 105.324 13.8158 153.126 2 0 3 -0.00110657 0.00690604 0.0107303 7.56186 -8.30172 -6.44895 
8116 508 2 12.01 0.14 7.66117 13.017 5.86949 106.026 13.017 153.417 2 0 3 5.73175e-05 0.00271626 -0.00403529 -16.4053 -10.064 -11.8293 
382 24 3 1.008 0.03 1.32717 13.7463 5.29348 148.874 -35.4361 5.29348 3 -1 0 -0.0108121 -0.00474256 0.00147929 11.5163 9.3846 6.84652 
2057 129 3 1.008 0.03 6.12356 10.9842 1.05472 55.3059 60.1665 50.2371 1 1 1 -0.00378704 -0.0389814 0.014227 -3.0342 -1.87796 0.713256 
6681 418 3 1.008 0.03 6.38022 9.37868 6.76478 104.745 -88.986 55.9471 2 -2 1 -0.0361819 0.0278631 -0.00139302 -13.7885 3.21292 -19.3388 
6676 418 2 12.01 0.14 5.45259 9.01017 6.25697 103.817 -89.3545 55.4393 2 -2 1 0.00363549 -0.000606531 -0.00189936 49.1591 11.399 9.28963 
371 24 2 12.01 0.14 4.45731 16.1473 6.11732 152.004 -33.035 6.11732 3 -1 0 -0.00453703 -0.00356566 -0.0124861 38.693 0.01238 -0.286845 
376 24 3 1.008 0.03 4.02925 15.736 7.04197 151.576 -33.4464 7.04197 3 -1 0 0.0489944 -0.011464 0.0104707 0.456312 4.54758 -4.62291 
375 24 3 1.008 0.03 5.58295 16.2471 6.26353 153.13 -32.9353 6.26353 3 -1 0 0.0182528 -0.0142712 0.00198505 -30.7875 -9.05004 -1.84977 
7789 487 3 1.008 0.03 1.40392 16.2377 0.849628 50.5863 16.2377 0.849628 1 0 0 0.0146245 0.00358114 -0.0166179 -3.78903 19.5959 -18.1697 
7783 487 3 1.008 0.03 3.6067 14.7606 0.72413 52.7891 14.7606 0.72413 1 0 0 0.0176358 -0.00414659 0.0182069 16.763 -17.05 -9.41541 
2051 129 2 12.01 0.14 6.86723 12.9435 0.518623 56.0496 62.1258 49.701 1 1 1 -0.00246378 0.00781508 -0.00021589 -3.1679 -19.8746 21.0262 
6679 418 3 1.008 0.03 4.2453 10.8658 6.11926 102.61 -87.4989 55.3016 2 -2 1 -0.0013797 0.0184882 -0.00732569 2.58888 -7.57514 -0.719717 
384 24 3 1.008 0.03 2.68967 14.0441 6.40351 150.237 -35.1383 6.40351 3 -1 0 0.00261021 -0.00819502 0.0243559 -1.84989 -10.6179 21.7183 
8121 508 3 1.008 0.03 7.15445 12.0393 5.71847 105.519 12.0393 153.266 2 0 3 -0.0262702 -0.000928851 0.00864743 10.0492 11.3821 -5.14373 
6675 418 2 12.01 0.14 4.30365 9.92102 6.67957 102.668 -88.4437 55.8619 2 -2 1 -0.000528615 0.00872568 -0.00180182 -25.2168 -35.0475 -34.8461 
6673 418 1 16 -0.4 3.15399 9.03114 6.46399 101.519 -89.3336 55.6463 2 -2 1 -0.00489283 -0.00409288 -0.00527434 -6.1557 46.8429 18.1698 
8115 508 2 12.01 0.14 7.86041 13.2405 7.32637 106.225 13.2405 154.873 2 0 3 0.00796879 0.0031362 0.00275859 23.4688 -13.0613 2.59391 
6684 418 3 1.008 0.03 1.62005 10.2209 7.40871 99.9848 -88.1438 56.5911 2 -2 1 0.00222969 -0.00287158 -0.00807084 -0.792173 17.3143 47.0613 
8119 508 3 1.008 0.03 8.48165 14.0971 7.42348 106.846 14.0971 154.971 2 0 3 -0.0147248 0.0100347 -0.0152672 0.966531 24.0264 2.9952 
7974 499 2 12.01 0.11 16.7562 15.3853 5.66994 -81.6085 -82.9794 54.8523 -2 -2 1 0.00706758 -0.00190977 -0.00393403 31.8308 -17.5254 23.7646 
2984 187 3 1.008 0.03 13.6529 9.90485 3.27879 62.8352 9.90485 101.643 1 0 2 0.0326467 -0.00778873 0.005348 6.75729 -11.5974 -1.87781 
4680 293 3 1.008 0.03 11.5569 8.91658 6.0987 -37.6254 58.0989 55.281 -1 1 1 -0.0213099 -0.0089954 0.00389352 -0.950657 -3.64623 -7.56589 
2979 187 2 12.01 0.14 13.7134 9.64343 2.21329 62.8957 9.64343 100.578 1 0 2 -0.00262176 -0.00044155 0.0020482 -23.5683 6.51756 23.2502 
2987 187 3 1.008 0.03 15.8496 9.03027 3.37242 65.0319 9.03027 101.737 1 0 2 0.0176967 0.0285854 0.000251947 8.40836 20.3555 -22.0743 
2981 187 2 12.01 0.11 15.9407 9.23696 2.26591 65.1231 9.23696 100.631 1 0 2 -0.00412768 -0.000823315 0.00285634 1.01647 -72.5201 24.9241 
1311 82 3 1.008 0.03 9.25907 16.2361 3.09748 107.624 -32.9463 101.462 2 -1 2 -0.0310376 -0.00861348 -0.00206954 -13.0988 12.9117 -1.45699 
8128 508 3 1.008 0.03 9.4717 11.4313 4.39258 107.836 11.4313 151.94 2 0 3 -0.0144717 0.0179749 0.00308781 0.401065 -0.83481 2.92705 
8127 508 3 1.008 0.03 9.81615 11.61 6.07291 108.181 11.61 153.62 2 0 3 0.0230266 -0.00344173 -0.0101996 8.41264 -11.6366 20.1657 
2978 187 1 16 -0.4 11.3183 10.2887 2.15058 60.5007 10.2887 100.515 1 0 2 -0.00257137 0.00684465 -0.00269358 -9.31727 10.2714 -1.05442 
2990 187 3 1.008 0.03 9.29346 10.902 1.96653 58.4758 10.902 100.331 1 0 2 0.0164856 -0.00416203 0.00492904 -5.99776 -8.79468 -0.633016 
2977 187 1 16 -0.4 14.9541 10.0497 1.72675 64.1364 10.0497 100.091 1 0 2 -1.02371e-05 -0.000901626 -0.00127376 -0.560197 6.9877 -6.64967 
2980 187 2 12.01 0.14 12.6366 10.5494 1.64863 61.819 10.5494 100.013 1 0 2 -0.00376097 -0.00032134 0.000214109 -0.981765 45.6485 -4.9214 
7977 499 3 1.008 0.03 14.6969 16.0358 7.04785 -83.6678 -82.3289 56.2302 -2 -2 1 -0.00211199 -0.0115769 0.0199064 -6.98409 9.25751 -5.30732 
5246 328 3 1.008 0.03 10.4299 15.5018 1.1871 108.795 15.5018 -146.36 2 0 -3 -0.0123329 0.00500942 0.0279882 -26.2968 4.57689 5.51448 
7975 499 3 1.008 0.03 12.98 14.9575 5.10731 -85.3847 -83.4072 54.2897 -2 -2 1 -0.0270337 -0.0192973 0.0140923 2.24159 16.8821 -6.51516 
2985 187 3 1.008 0.03 13.0008 11.6244 1.83768 62.1832 11.6244 100.202 1 0 2 -0.00381592 -0.0101334 -0.0054986 -21.8918 -34.9283 -5.33803 
2991 187 3 1.008 0.03 10.4071 12.1314 1.68253 59.5895 12.1314 100.047 1 0 2 -0.00982033 -0.00647143 0.0159125 8.08251 14.7552 6.04156 
5248 328 3 1.008 0.03 12.0266 15.9575 1.09549 110.391 15.9575 -146.452 2 0 -3 -0.00395863 -0.0163903 0.0310349 9.58465 7.9839 2.46239 
5238 328 2 12.01 0.11 11.3901 15.0938 1.0643 109.755 15.0938 -146.483 2 0 -3 0.000537042 0.000380856 -0.00515719 21.6664 -20.3709 -4.11172 
5247 328 3 1.008 0.03 11.6239 14.4405 1.93944 109.989 14.4405 -145.608 2 0 -3 0.0328734 -0.0146659 0.027751 -2.17403 5.51736 -18.1365 
7971 499 2 12.01 0.14 13.2482 14.6502 6.10391 -85.1165 -83.7145 55.2863 -2 -2 1 -0.000639357 0.0106863 0.00244564 -48.3223 5.02783 67.5444 
7686 481 2 12.01 0.11 16.5739 12.7769 2.6741 16.5739 160.324 2.6741 0 3 0 -0.00273414 0.00608563 0.00298154 31.9721 -25.3223 6.62324 
2982 187 2 12.01 0.11 10.264 11.0858 1.52938 59.4463 11.0858 99.8941 1 0 2 0.00164733 -0.00349894 0.00136635 25.9603 -7.94171 28.4861 
7695 481 3 1.008 0.03 15.5239 12.9037 2.66534 15.5239 160.451 2.66534 0 3 0 0.0254258 -0.0216211 0.0010057 -19.7036 20.2463 -4.87225 
7973 499 2 12.01 0.11 13.6187 12.5977 5.15208 -84.746 -85.767 54.3344 -2 -2 1 -0.00490201 -0.00195969 0.00261722 22.9517 -3.95607 6.75391 
7972 499 2 12.01 0.14 14.6552 15.045 6.63283 -83.7095 -83.3197 55.8152 -2 -2 1 0.00074963 0.00281125 -0.00111478 -1.81627 -3.22049 -27.2037 
7696 481 3 1.008 0.03 16.5912 11.6789 2.872 16.5912 159.226 2.872 0 3 0 0.0161916 0.000894268 0.0283037 11.9297 21.0705 -3.46471 
8126 508 3 1.008 0.03 10.8226 12.412 4.85289 109.187 12.412 152.4 2 0 3 -0.0102609 0.0125654 -0.0253074 2.18748 5.30398 2.95861 
7969 499 1 16 -0.4 12.9595 13.2609 6.20417 -85.4052 -85.1038 55.3865 -2 -2 1 -0.00414503 -0.00230656 -0.00409236 14.1659 9.11452 -3.01658 
7981 499 3 1.008 0.03 13.3843 11.5702 5.15685 -84.9804 -86.7945 54.3392 -2 -2 1 -0.0369478 0.0118611 0.0326598 -10.5198 -22.7573 -0.353942 
7976 499 3 1.008 0.03 12.4602 15.0597 6.85705 -85.9045 -83.305 56.0394 -2 -2 1 0.00520582 -0.0239548 0.0307682 34.5489 -9.3643 -36.6979 
8118 508 2 12.01 0.11 9.81952 12.1312 5.15559 108.184 12.1312 152.703 2 0 3 -0.00180884 -0.00447472 0.00016455 -11.3666 -16.207 -22.7306 
7979 499 3 1.008 0.03 13.3899 13.0045 4.20214 -84.9748 -85.3602 53.3845 -2 -2 1 -0.0108203 -0.018551 -0.00654424 -11.2377 4.8106 -20.1977 
7980 499 3 1.008 0.03 14.7091 12.6156 5.18672 -83.6556 -85.7491 54.3691 -2 -2 1 -0.0105157 -0.00965165 -0.0216398 -1.16583 3.1528 8.72677 
7970 499 1 16 -0.4 15.5123 14.9496 5.47315 -82.8524 -83.4151 54.6555 -2 -2 1 -0.00156072 6.30327e-05 -0.00477672 -53.2722 -8.81802 -7.90104 
8114 508 1 16 -0.4 8.91193 13.1883 5.19042 107.277 13.1883 152.737 2 0 3 -0.00212654 -0.00080979 -0.00649339 -11.8537 27.6706 -8.89367 
2986 187 3 1.008 0.03 12.553 10.4514 0.581909 61.7353 10.4514 98.9466 1 0 2 -0.0111996 -0.0105297 -0.0141022 6.28169 -3.59358 -9.54453 
2992 187 3 1.008 0.03 10.2425 10.9926 0.480046 59.4248 10.9926 98.8447 1 0 2 -0.0114941 -0.00790676 0.0132881 -3.13534 -10.9101 -23.3323 
7745 485 1 16 -0.4 15.7892 10.718 6.90917 15.7892 158.265 6.90917 0 3 0 0.00204461 0.00568268 0.000284869 -3.19827 -8.19104 -14.8067 
7984 499 3 1.008 0.03 16.7824 16.4148 5.91836 -81.5823 -81.9499 55.1007 -2 -2 1 0.0211699 0.0234517 -0.0142323 -1.14548 16.217 19.7055 
4368 273 3 1.008 0.03 23.7521 9.97154 0.80409 23.7521 9.97154 197.533 0 0 4 -0.0102865 0.0217261 0.00733304 -0.06522 0.283314 20.9604 
1574 99 2 12.01 0.11 23.4074 15.5543 6.79739 23.4074 -33.6281 6.79739 0 -1 0 0.00332031 0.00680741 -0.00270328 -19.1838 -2.78702 -3.86327 
814 51 3 1.008 0.03 19.7746 16.5581 6.76548 167.322 16.5581 -42.4169 3 0 -1 0.000983068 0.025151 -0.0154405 6.23239 0.881572 2.13377 
7748 485 2 12.01 0.14 18.1034 11.3099 6.74494 18.1034 158.857 6.74494 0 3 0 -0.00140611 -0.00325808 -0.00703268 14.7749 38.9918 21.988 
7982 499 3 1.008 0.03 17.0538 14.6474 6.43959 -81.3109 -83.7173 55.6219 -2 -2 1 -0.00303145 -0.00648605 -0.00972016 17.3575 20.3677 -2.65406 