ITEM: TIMESTEP
2550000
ITEM: NUMBER OF ATOMS
10479
ITEM: BOX BOUNDS pp pp pp
4.0882558190751794e-01 4.9591174418091420e+01
4.0882558190751794e-01 4.9591174418091420e+01
4.0882558190751794e-01 4.9591174418091420e+01
ITEM: ATOMS id mol type mass q x y z xu yu zu ix iy iz vx vy vz fx fy fz 
10128 636 7 12.01 0.35 5.91463 3.33318 7.03146 5.91463 3.33318 56.2138 0 0 1 -0.00220431 0.0011355 0.00205575 -20.967 10.4038 -20.909 
10129 636 8 19 -0.16 5.07857 4.32321 6.99333 5.07857 4.32321 56.1757 0 0 1 -0.0102507 -0.00134569 0.00184854 -29.7823 6.94176 19.2243 
4489 281 3 1.008 0.03 2.26083 3.92726 6.63208 100.626 -45.2551 154.179 2 -1 3 0.0204737 -0.0117254 0.0104829 -25.4929 12.8469 -6.8176 
4482 281 1 16 -0.4 1.34547 5.00458 5.09856 99.7102 -44.1778 152.646 2 -1 3 0.00605549 -0.00241569 -0.00177278 -6.43832 7.53011 -20.6094 
10117 636 4 14.01 -0.66 7.80349 5.08597 6.42525 7.80349 5.08597 55.6076 0 0 1 -0.000697294 0.00391479 0.00585432 6.76587 -37.445 -10.6831 
10118 636 5 32.06 1.02 7.54052 6.61272 6.25636 7.54052 6.61272 55.4387 0 0 1 -0.00356829 0.00307996 -0.000979111 -48.181 56.963 -5.3401 
10119 636 6 16 -0.53 6.16588 7.07961 6.53285 6.16588 7.07961 55.7152 0 0 1 0.00245455 0.0037736 0.00159373 38.002 -22.2302 -11.8449 
10130 636 8 19 -0.16 5.87767 2.98192 5.77815 5.87767 2.98192 54.9605 0 0 1 0.00541187 -0.000350454 0.00298647 15.1982 -21.9771 -14.5851 
4486 281 2 12.01 0.11 1.70603 4.05154 4.07187 100.071 -45.1308 151.619 2 -1 3 0.00159323 0.00207013 -0.00120863 -4.41364 -4.84094 35.1962 
4495 281 3 1.008 0.03 2.77576 3.86857 4.08707 101.14 -45.3138 151.634 2 -1 3 -0.024744 0.00805531 -0.0228211 5.47856 10.7259 -11.8428 
10123 636 8 19 -0.16 6.68995 6.15002 3.72858 6.68995 6.15002 52.9109 0 0 1 0.00228726 0.00558872 -0.000752608 10.0003 10.1361 12.1311 
976 61 3 1.008 0.03 8.56196 2.41051 4.54739 8.56196 2.41051 53.7297 0 0 1 -0.000560335 -0.00992967 -0.0272535 -15.8555 13.98 11.1733 
1019 64 3 1.008 0.03 5.72497 1.69024 2.37647 54.9073 -96.6745 100.741 1 -2 2 -0.000214809 -0.0017788 -0.00177526 9.14827 0.399161 -13.0125 
1013 64 2 12.01 0.11 6.02245 0.956741 1.60352 55.2048 -97.408 99.9682 1 -2 2 0.00491403 0.00496035 0.00428949 -4.16481 4.97998 49.2872 
10121 636 7 12.01 0.35 7.68703 6.78003 4.37463 7.68703 6.78003 53.557 0 0 1 -0.0028362 -0.00273934 0.000860316 -45.7297 3.66962 13.4148 
4490 281 3 1.008 0.03 0.462491 4.07116 6.79638 98.8272 -45.1112 154.343 2 -1 3 0.00878995 -0.0102895 -0.0328943 7.64264 6.52213 -7.46718 
1009 64 1 16 -0.4 7.31543 0.479273 1.92094 56.4978 -97.8854 100.286 1 -2 2 0.00124646 -0.00515895 0.000308467 16.1282 -1.20711 5.86335 
5856 366 3 1.008 0.03 1.36473 3.08253 1.38216 1.36473 3.08253 -47.8002 0 0 -1 -0.0236069 0.00332377 -0.0454819 -6.68353 -14.8342 -29.5906 
5842 366 1 16 -0.4 1.71351 1.18574 1.02235 1.71351 1.18574 -48.16 0 0 -1 0.00418952 -0.00435085 -0.00450677 27.2353 -19.7432 -17.6215 
4494 281 3 1.008 0.03 1.25472 4.26915 3.09533 99.6194 -44.9132 150.642 2 -1 3 -0.00479834 -0.020517 0.00259287 9.21388 5.49197 5.90231 
365 23 3 1.008 0.03 4.22815 6.67299 2.37763 4.22815 6.67299 -46.8047 0 0 -1 -0.0073947 -0.000322223 0.0261275 7.8749 -0.254362 -0.777483 
364 23 3 1.008 0.03 3.10089 5.53887 1.50427 3.10089 5.53887 -47.6781 0 0 -1 0.0347968 0.00244504 0.0161245 2.05542 2.69036 25.2336 
363 23 3 1.008 0.03 2.47707 6.97146 2.34934 2.47707 6.97146 -46.833 0 0 -1 -0.0457009 -0.0194649 -0.00994247 -2.55642 -0.119496 9.42901 
357 23 2 12.01 0.11 3.31927 6.58003 1.79928 3.31927 6.58003 -47.3831 0 0 -1 -0.000501536 0.0119 0.00103998 -13.5347 -29.5096 -6.3494 
2421 152 2 12.01 0.11 7.35415 4.69783 0.71634 -140.193 53.8802 99.081 -3 1 2 -0.00157949 0.000446244 -0.00247765 -19.1822 22.0893 -35.0104 
10120 636 6 16 -0.53 8.59398 7.50569 6.70027 8.59398 7.50569 55.8826 0 0 1 -9.22575e-05 0.00293275 0.00665184 3.47369 -16.1294 1.56859 
3784 237 3 1.008 0.03 0.595112 7.92115 5.26043 0.595112 57.1035 5.26043 0 1 0 0.00118678 -0.0343056 0.0160036 -25.1275 -10.6246 -36.3713 
2429 152 3 1.008 0.03 6.88533 5.24487 1.49456 -140.662 54.4272 99.8593 -3 1 2 0.00234344 0.0256891 0.0165127 -1.41841 7.63819 21.1096 
1020 64 3 1.008 0.03 5.89754 1.39148 0.652474 55.0799 -96.9732 99.0172 1 -2 2 -0.000943483 0.00925754 -0.00687694 -3.68195 8.98843 -22.3574 
4496 281 3 1.008 0.03 1.38561 3.06731 4.36412 99.7503 -46.115 151.911 2 -1 3 0.00559724 -0.015087 0.0187202 -13.1599 -5.12309 0.160754 
4481 281 1 16 -0.4 0.71002 6.91885 7.30843 99.0747 -42.2635 154.855 2 -1 3 -0.00255524 -0.00225324 -0.00640443 -1.00799 -17.011 15.1143 
10122 636 8 19 -0.16 7.69222 8.04698 3.92145 7.69222 8.04698 53.1038 0 0 1 0.00597828 -0.00202666 0.000686509 1.13019 -15.1883 11.0753 
2423 152 3 1.008 0.03 8.5765 7.05368 0.755742 -138.971 56.236 99.1204 -3 1 2 0.00812211 -0.00848807 0.0222447 6.32734 2.18708 5.80272 
4484 281 2 12.01 0.14 1.37081 4.60855 6.46301 99.7355 -44.5738 154.01 2 -1 3 -0.00702746 -0.0026298 0.00318819 27.1585 -10.3213 16.7133 
353 23 1 16 -0.4 3.3007 7.21458 0.582211 3.3007 7.21458 -48.6001 0 0 -1 -0.00404167 0.0035594 0.00600572 12.0235 25.3853 -37.3778 
2252 141 3 1.008 0.03 6.55046 0.961041 4.60761 6.55046 0.961041 53.79 0 0 1 0.0230279 -0.0156326 -0.0153695 1.59733 -7.2886 -11.7151 
2428 152 3 1.008 0.03 8.17062 4.08816 1.09035 -139.376 53.2705 99.4551 -3 1 2 -0.011222 -0.0233882 0.000679876 0.536833 -7.06273 -1.95078 
4487 281 3 1.008 0.03 2.60469 6.29335 7.02214 100.969 -42.889 154.569 2 -1 3 0.000644379 -0.0075233 -0.00729577 7.91807 3.10061 -4.23089 
5846 366 2 12.01 0.11 0.931024 2.27523 0.725022 0.931024 2.27523 -48.4573 0 0 -1 -0.00252775 -0.000512947 -0.000179542 -13.1233 57.2905 32.0768 
4483 281 2 12.01 0.14 1.67473 5.86238 7.35239 100.039 -43.32 154.899 2 -1 3 0.00852734 0.00109751 -0.00200244 0.974025 -22.3637 14.2416 
968 61 3 1.008 0.03 13.6125 1.18716 5.79068 13.6125 1.18716 54.973 0 0 1 0.0226636 -0.0122896 0.00117779 3.20795 -5.31362 6.81963 
10124 636 8 19 -0.16 8.75936 6.21397 3.93565 8.75936 6.21397 53.118 0 0 1 -0.00459062 0.0027342 0.00239667 29.9454 -8.34687 -9.3083 
975 61 3 1.008 0.03 9.0625 0.88217 4.07503 9.0625 0.88217 53.2574 0 0 1 0.00636141 -0.0126057 -0.0150599 9.45441 -0.062391 -8.27666 
969 61 3 1.008 0.03 12.0171 1.72643 4.01349 12.0171 1.72643 53.1958 0 0 1 -0.00329063 -0.0135436 0.0146795 2.24239 0.851577 -17.4399 
966 61 2 12.01 0.11 9.44107 1.88581 4.28592 9.44107 1.88581 53.4683 0 0 1 -0.00509441 0.00315957 -0.00339051 31.7527 8.32566 -21.6653 
9642 604 8 19 -0.16 16.2311 3.94552 2.56342 16.2311 53.1279 2.56342 0 1 0 0.00463212 0.00736162 0.000359084 0.582758 -13.7157 -23.8804 
974 61 3 1.008 0.03 9.84512 2.45377 3.37959 9.84512 2.45377 52.5619 0 0 1 0.00794214 0.0338426 0.0166579 -11.8774 -24.9115 23.3726 
7936 496 3 1.008 0.03 11.5608 4.32069 5.28517 11.5608 4.32069 54.4675 0 0 1 0.0137772 -0.00550562 0.0101025 5.15086 7.74227 6.66899 
962 61 1 16 -0.4 10.4057 1.87597 5.36265 10.4057 1.87597 54.545 0 0 1 0.00593716 -0.00506506 -0.00146564 3.61484 6.25859 -2.09908 
964 61 2 12.01 0.14 11.6928 1.35778 4.96075 11.6928 1.35778 54.1431 0 0 1 0.00180288 0.00626061 0.00737612 -37.9548 -18.0837 24.4539 
967 61 3 1.008 0.03 12.9088 2.78662 5.95981 12.9088 2.78662 55.1422 0 0 1 0.018157 0.0110383 -0.00206329 11.9604 12.6596 -12.4136 
963 61 2 12.01 0.14 12.7122 1.74039 6.0177 12.7122 1.74039 55.2 0 0 1 0.00060225 -0.000944018 0.00607651 0.931363 -3.30856 -16.6875 
7926 496 2 12.01 0.11 11.1058 4.82494 6.14799 11.1058 4.82494 55.3303 0 0 1 -0.00208837 -0.00242684 0.00364999 -37.9912 3.25059 -27.2683 
9640 604 6 16 -0.53 13.378 3.68641 2.68244 13.378 52.8688 2.68244 0 1 0 -0.0101846 0.00639957 -0.00239084 4.43492 18.2088 -13.4875 
9638 604 5 32.06 1.02 13.9588 4.44339 1.57351 13.9588 53.6257 1.57351 0 1 0 0.00380149 0.00489 0.00422853 -30.8802 -34.6616 38.0344 
7935 496 3 1.008 0.03 11.5832 5.70271 6.46376 11.5832 5.70271 55.6461 0 0 1 0.0216834 0.00377876 -0.0121238 26.2805 20.0022 1.06628 
7934 496 3 1.008 0.03 10.1664 5.2396 5.7157 10.1664 5.2396 54.898 0 0 1 -0.00484286 0.00852023 -0.0213033 12.4298 -11.8673 11.5799 
7922 496 1 16 -0.4 10.8818 3.95124 7.22896 10.8818 3.95124 56.4113 0 0 1 0.00431833 0.00260442 0.00445596 -11.7636 -38.8443 -8.68722 
2063 129 3 1.008 0.03 15.0835 2.20508 4.3684 64.2659 51.3874 53.5508 1 1 1 -0.0150155 -0.00729815 0.0150338 -39.1858 -10.0317 -42.575 
9639 604 6 16 -0.53 14.2655 5.83037 1.75436 14.2655 55.0127 1.75436 0 1 0 0.0042542 0.00262377 0.000180795 4.71633 12.0097 -2.13549 
2064 129 3 1.008 0.03 15.4734 3.15539 5.77908 64.6557 52.3377 54.9614 1 1 1 0.0259736 0.0242968 0.0166377 -13.8599 17.0314 -10.6086 
2054 129 2 12.01 0.11 15.7789 2.41227 5.06104 64.9612 51.5946 54.2434 1 1 1 0.00422319 0.001562 0.00380981 37.2714 4.58901 68.5946 
7500 469 3 1.008 0.03 14.8181 6.99171 4.00179 113.183 -42.1906 102.366 2 -1 2 -0.0109805 -0.0151606 -0.00481759 3.11515 10.1776 -0.801056 
9647 604 6 16 -0.53 10.9658 3.57091 0.607961 10.9658 52.7533 0.607961 0 1 0 0.00490402 -0.00650446 -0.00268451 38.051 9.46352 -20.7666 
2062 129 3 1.008 0.03 16.7135 2.7102 4.6683 65.8958 51.8926 53.8507 1 1 1 0.0054707 -0.00440452 -0.0252138 9.05995 8.83748 -20.5376 
2050 129 1 16 -0.4 16.0283 1.34871 5.93936 65.2106 50.5311 55.1217 1 1 1 0.00201111 0.00706387 0.00563347 -7.2265 -21.264 -15.4115 
7501 469 3 1.008 0.03 14.3313 8.55551 4.67576 112.696 -40.6268 103.04 2 -1 2 -0.0164076 -0.00644512 0.0177346 0.500357 -2.3126 -1.7592 
4687 293 3 1.008 0.03 11.0275 7.87326 3.42001 -38.1549 57.0556 52.6024 -1 1 1 0.000102231 0.00121468 0.0131812 9.34102 14.1617 18.3282 
4016 251 3 1.008 0.03 14.5062 5.94942 6.23801 63.6886 55.1318 153.785 1 1 3 -0.00498365 -0.000623426 -0.0265837 6.72432 -1.42185 6.85367 
7493 469 2 12.01 0.11 14.8859 8.08456 3.85971 113.251 -41.0978 102.224 2 -1 2 -0.0062857 -0.00381723 -0.00587297 5.27622 -6.00432 14.7467 
7499 469 3 1.008 0.03 14.3849 8.36586 2.94735 112.75 -40.8165 101.312 2 -1 2 -0.0128189 -0.011656 -0.0181917 -1.26931 1.45874 -8.94883 
7489 469 1 16 -0.4 16.2235 8.56996 3.92714 114.588 -40.6124 102.292 2 -1 2 -0.00356004 -0.00266925 0.00232937 10.5551 0.166277 -14.3614 
9641 604 7 12.01 0.35 15.5379 3.64496 1.44287 15.5379 52.8273 1.44287 0 1 0 -0.000958529 0.000926517 0.00490399 20.9866 23.2082 55.7813 
4006 251 2 12.01 0.11 15.1648 5.81202 7.11309 64.3472 54.9944 154.66 1 1 3 -0.00144313 -0.00129094 -0.00437774 -0.627865 8.37832 21.1985 
4015 251 3 1.008 0.03 15.9474 5.07965 6.93649 65.1297 54.262 154.484 1 1 3 -0.00671757 -0.00596486 0.00387605 -1.08721 -2.82933 -7.86463 
961 61 1 16 -0.4 12.2537 1.62857 7.32957 12.2537 1.62857 56.5119 0 0 1 -0.000999083 -0.00246578 0.00344016 -3.97 -0.077256 18.1033 
7496 469 3 1.008 0.03 16.7089 7.97929 2.00883 115.074 -41.2031 100.374 2 -1 2 0.00236634 0.0121314 0.0270191 -26.1384 -2.8246 -42.9898 
4680 293 3 1.008 0.03 11.8788 8.54356 1.39769 -37.3036 57.7259 50.58 -1 1 1 -0.0183921 -0.0082642 0.00995643 -6.22554 4.2279 3.21908 
4688 293 3 1.008 0.03 11.9841 8.14481 4.95312 -37.1983 57.3272 54.1355 -1 1 1 0.00553619 -0.0021982 0.0367269 -12.9681 2.78573 -7.72527 
9644 604 8 19 -0.16 15.4986 2.35075 1.32437 15.4986 51.5331 1.32437 0 1 0 0.00734377 -0.00908937 -0.000306155 -6.24418 -22.7324 3.71166 
9649 604 8 19 -0.16 12.7465 1.14065 0.549541 12.7465 50.323 0.549541 0 1 0 0.00749694 -0.00204937 -0.00189225 -13.4726 6.72396 -4.09264 
9643 604 8 19 -0.16 16.2149 4.06022 0.434152 16.2149 53.2426 0.434152 0 1 0 -0.00617976 -0.00119054 -0.000562725 22.0659 15.9616 -25.052 
10461 672 9 24.305 2 10.31 2.00018 7.25009 10.31 2.00018 56.4324 0 0 1 -0.00369855 0.000493281 -0.000777929 -5.14354 11.0545 20.5857 
4014 251 3 1.008 0.03 15.6704 6.74603 7.38233 64.8528 55.9284 154.929 1 1 3 0.020714 0.0108367 -0.00129327 -1.48415 0.50037 -11.518 
2375 149 3 1.008 0.03 23.5818 3.48749 2.28833 23.5818 52.6698 2.28833 0 1 0 0.0151695 -0.00570376 0.0241219 15.8744 0.569736 4.08953 
7495 469 3 1.008 0.03 17.3269 7.0151 3.20623 115.692 -42.1672 101.571 2 -1 2 0.0115457 0.00755973 0.0081911 4.83184 -16.8092 7.38855 
7491 469 2 12.01 0.14 17.1244 8.01954 2.93741 115.489 -41.1628 101.302 2 -1 2 0.00117217 0.000510271 0.000750297 -6.55717 28.3084 38.7371 
2052 129 2 12.01 0.14 16.969 1.69579 6.90769 66.1513 50.8781 56.09 1 1 1 0.00749221 -0.000445672 -0.00539953 18.5032 -12.3821 25.1732 
4807 301 3 1.008 0.03 24.4942 4.1676 6.23973 24.4942 53.35 55.4221 0 1 1 0.0251152 0.0117955 -0.0190619 -1.09479 -5.5094 19.5074 
2371 149 2 12.01 0.14 23.1496 2.4966 2.33249 23.1496 51.6789 2.33249 0 1 0 0.00313179 0.00558928 0.00267123 2.8662 4.65724 -10.8701 
139 9 3 1.008 0.03 18.3507 7.43578 6.51184 -30.8316 105.8 -42.6705 -1 2 -1 0.000527614 0.00882362 0.00772376 -2.87394 -3.3225 -11.0975 
2376 149 3 1.008 0.03 22.1292 2.78316 2.36615 22.1292 51.9655 2.36615 0 1 0 0.0135035 -0.0104056 -0.0336948 -19.6699 -5.00067 -10.3195 
140 9 3 1.008 0.03 19.5733 6.35728 5.68162 -29.609 104.722 -43.5007 -1 2 -1 0.023727 0.00708729 0.0122075 -4.78027 8.43211 7.02153 
133 9 2 12.01 0.11 18.5953 6.41937 6.18422 -30.587 104.784 -42.9981 -1 2 -1 -0.0070403 0.00134168 0.00527839 17.2222 -47.2482 46.144 
141 9 3 1.008 0.03 17.9165 5.97789 5.45908 -31.2658 104.343 -43.7233 -1 2 -1 -0.0203024 0.0137191 -0.00242522 -9.68235 10.396 0.0295236 
7498 469 3 1.008 0.03 19.1167 8.15741 2.51081 117.481 -41.0249 100.876 2 -1 2 -0.0214841 -0.011703 -0.036634 26.2111 -19.1527 0.941534 
4803 301 2 12.01 0.14 24.3565 3.42134 7.06047 24.3565 52.6037 56.2428 0 1 1 0.0035498 -0.00377825 0.0110677 -45.0283 13.0792 -31.6521 
4812 301 3 1.008 0.03 21.735 4.31355 6.37031 21.735 53.4959 55.5527 0 1 1 0.00288806 0.00836751 0.0139881 16.334 15.8631 -18.5967 
4801 301 1 16 -0.4 23.1758 2.69474 6.60441 23.1758 51.8771 55.7868 0 1 1 0.00332967 -0.000685358 0.00358159 32.64 -3.25918 0.793006 
5273 330 3 1.008 0.03 18.6995 5.44658 2.71692 67.8819 -43.7358 -46.4654 1 -1 -1 -0.00210002 0.00411656 0.0187113 -0.875663 6.50433 6.03358 
320 20 3 1.008 0.03 23.3659 7.00437 3.18883 -25.8164 -140.543 101.554 -1 -3 2 0.015877 0.00821215 0.00558612 4.89747 5.64627 -12.8615 
310 20 2 12.01 0.11 23.1415 6.38216 4.03018 -26.0408 -141.165 102.395 -1 -3 2 0.00297969 0.00283789 0.00351511 -55.1748 -13.3916 6.49092 
318 20 3 1.008 0.03 23.8913 6.3592 4.72834 -25.291 -141.188 103.093 -1 -3 2 -0.0105902 -0.00711095 0.0125178 42.6953 -5.2081 18.5307 
4805 301 2 12.01 0.11 21.9556 3.37272 6.81498 21.9556 52.5551 55.9973 0 1 1 0.00206796 0.00233425 -0.00685988 -20.9472 13.6926 68.1593 
4813 301 3 1.008 0.03 21.0915 2.79943 6.54046 21.0915 51.9818 55.7228 0 1 1 0.00683307 0.00949183 0.00254932 -3.47262 -15.1413 -1.23693 
2058 129 3 1.008 0.03 17.762 2.2935 6.45785 66.9443 51.4759 55.6402 1 1 1 -0.0081529 -0.0187789 -0.0153268 3.03609 1.12895 4.11597 
2378 149 3 1.008 0.03 22.492 1.88156 4.2668 22.492 51.0639 4.2668 0 1 0 -0.00702741 -0.0277709 0.00662037 13.5355 -0.033695 -11.9303 
5268 330 2 12.01 0.14 19.3867 4.89934 2.09525 68.569 -44.283 -47.0871 1 -1 -1 0.00291108 0.00462921 0.0101799 -6.27205 -12.3797 -15.3102 
5271 330 3 1.008 0.03 21.1329 6.22833 1.77482 70.3152 -42.954 -47.4075 1 -1 -1 -0.00330848 0.0201663 -0.0308219 11.8132 9.17831 23.0557 
5280 330 3 1.008 0.03 19.1785 4.1119 4.69947 68.3609 -45.0704 -44.4829 1 -1 -1 0.00358084 0.00191141 -0.0054317 -14.0545 16.7348 8.02458 
2372 149 2 12.01 0.14 23.3698 1.73214 3.59029 23.3698 50.9145 3.59029 0 1 0 -0.00377015 0.00271606 -0.000252937 -5.79291 -17.6157 46.9485 
5270 330 2 12.01 0.11 19.3576 3.42058 3.91572 68.5399 -45.7618 -45.2666 1 -1 -1 0.00210639 -0.000270511 -0.00181833 44.2443 -10.8332 -23.8504 
319 20 3 1.008 0.03 22.8992 5.36529 3.74381 -26.2831 -142.182 102.109 -1 -3 2 0.0260604 0.000843682 -0.00592969 5.71692 -3.43677 -7.43652 
306 20 1 16 -0.4 22.0111 6.81603 4.78462 -27.1712 -140.731 103.149 -1 -3 2 0.003275 0.00388247 -0.00417331 7.26713 5.11091 -22.9963 
311 20 3 1.008 0.03 23.1742 7.51188 6.69587 -26.0082 -140.035 105.061 -1 -3 2 0.0205592 0.0307067 -0.000876108 4.28094 40.9528 -6.93389 
5279 330 3 1.008 0.03 20.0452 2.71867 4.45823 69.2275 -46.4637 -44.7241 1 -1 -1 -0.000699271 -0.00493615 0.00523492 -24.3765 -1.11005 -17.7725 
5266 330 1 16 -0.4 20.1886 4.02716 2.87866 69.371 -45.1552 -46.3037 1 -1 -1 -0.0041077 -0.000355777 -0.00248255 -26.1854 -3.65834 22.4905 
2377 149 3 1.008 0.03 24.235 2.04426 4.18284 24.235 51.2266 4.18284 0 1 0 -0.00788485 0.0186698 -0.00300797 -1.22358 9.84808 -11.7431 
5278 330 3 1.008 0.03 18.4121 3.01225 3.47405 67.5945 -46.1701 -45.7083 1 -1 -1 -0.0175808 -0.00738886 -0.00102902 20.8912 -1.5788 13.3204 
308 20 2 12.01 0.14 22.0958 8.21125 5.01457 -27.0866 -139.336 103.379 -1 -3 2 -6.24773e-05 -0.00415517 0.00592878 3.65116 10.4694 3.67273 
307 20 2 12.01 0.14 23.1315 8.48965 6.09598 -26.0509 -139.057 104.461 -1 -3 2 -0.00326911 -0.00196541 -0.000265243 6.3665 -50.1258 -8.17294 
5274 330 3 1.008 0.03 18.7448 4.2434 1.45396 67.9271 -44.939 -47.7284 1 -1 -1 -0.0178225 -0.0191854 0.00268313 11.1601 16.4572 5.72591 
313 20 3 1.008 0.03 21.1384 8.44539 5.46618 -28.0439 -139.102 103.831 -1 -3 2 0.00462346 0.0299039 0.00149349 -6.23116 9.7749 -7.61803 
5267 330 2 12.01 0.14 20.2682 5.87464 1.28161 69.4506 -43.3077 -47.9007 1 -1 -1 0.000503873 0.00292714 0.00306214 3.398 -29.0539 -43.7596 
8283 518 3 1.008 0.03 20.5466 1.16008 1.82028 20.5466 50.3424 1.82028 0 1 0 -0.00903124 -0.00740323 -0.00616994 11.2692 -19.1843 -11.1775 
129 9 1 16 -0.4 18.5953 5.51379 7.3804 -30.587 103.878 -41.8019 -1 2 -1 -0.00180872 0.00523005 0.000605184 -3.3732 23.5721 -37.0493 
2369 149 1 16 -0.4 23.4841 1.64794 1.23151 23.4841 50.8303 1.23151 0 1 0 -0.0040155 0.0016808 0.00369086 -11.9007 2.77248 -16.637 
5272 330 3 1.008 0.03 19.7753 6.72966 0.815182 68.9576 -42.4527 -48.3672 1 -1 -1 -0.00936534 0.00817653 0.00485223 -10.9012 -1.84735 9.47849 
2888 181 3 1.008 0.03 5.01235 15.3472 6.18393 5.01235 15.3472 -42.9984 0 0 -1 0.0112861 -0.0197145 -0.01513 -0.383939 6.46434 4.49056 
2155 135 3 1.008 0.03 1.72245 13.4737 7.43012 1.72245 62.656 56.6125 0 1 1 -0.00981553 -0.0192496 -0.00045732 1.05947 4.76706 7.27829 
9848 618 5 32.06 1.02 1.10566 13.6028 2.20407 50.288 62.7851 2.20407 1 1 0 -0.00138199 0.00407303 -0.000487782 27.2534 38.1654 12.6866 
2883 181 2 12.01 0.14 5.20163 14.492 6.83068 5.20163 14.492 -42.3517 0 0 -1 0.00325926 -0.00109672 -0.00576858 -22.2432 -22.0555 3.87988 
3788 237 3 1.008 0.03 1.42746 9.12147 2.69281 1.42746 58.3038 2.69281 0 1 0 0.00990982 0.00333896 -0.0263914 1.22755 -10.4197 -13.8236 
3787 237 3 1.008 0.03 1.74457 9.54967 4.32624 1.74457 58.732 4.32624 0 1 0 0.0103872 -0.00193323 0.00853523 -15.1351 2.49824 -7.65567 
3781 237 2 12.01 0.11 0.9831 9.63538 3.51615 0.9831 58.8177 3.51615 0 1 0 -0.00288006 -0.00576549 -0.00279771 15.6574 6.31494 19.2908 
2882 181 1 16 -0.4 4.46448 12.236 7.09768 4.46448 12.236 -42.0847 0 0 -1 0.000362057 0.00151239 -0.00123236 -0.837869 -4.63319 24.4534 
2885 181 2 12.01 0.11 7.4298 15.2183 6.53026 7.4298 15.2183 -42.6521 0 0 -1 0.00394944 -0.00593193 0.005353 17.1437 -35.8783 -2.59305 
2886 181 2 12.01 0.11 3.87514 11.0981 6.58398 3.87514 11.0981 -42.5984 0 0 -1 0.00224642 -0.00441732 -0.00123722 -21.1892 -23.2294 17.8048 
2893 181 3 1.008 0.03 7.27973 15.5679 5.50188 7.27973 15.5679 -43.6805 0 0 -1 -0.00424726 -0.0390526 0.0232859 1.84796 -5.7787 1.78746 
2890 181 3 1.008 0.03 4.78954 13.1367 5.18404 4.78954 13.1367 -43.9983 0 0 -1 -0.00596919 0.00504798 -0.0348242 6.87949 -13.9972 10.9046 
4413 276 3 1.008 0.03 5.41677 13.8688 0.766989 5.41677 63.0511 99.1317 0 1 2 -0.0154551 -0.000628907 -0.00204714 -10.3388 10.9364 0.783666 
3789 237 3 1.008 0.03 0.970653 10.6927 3.22734 0.970653 59.8751 3.22734 0 1 0 0.000576652 0.0187847 -0.0288871 -5.81431 -9.61161 6.1134 
9852 618 8 19 -0.16 3.04742 11.9108 1.97911 52.2298 61.0932 1.97911 1 1 0 -0.00123677 -0.0080951 -0.00266256 9.09356 1.17528 1.29434 
9851 618 7 12.01 0.35 1.98323 12.318 1.32154 51.1656 61.5003 1.32154 1 1 0 -0.000463253 -0.000111797 -0.00495289 9.52814 -24.7712 11.8847 
9854 618 8 19 -0.16 1.24879 11.2447 1.15877 50.4311 60.427 1.15877 1 1 0 0.00187395 0.00020808 -0.00309032 -8.07811 -8.20359 -3.02453 
2896 181 3 1.008 0.03 4.58875 10.6925 5.9342 4.58875 10.6925 -43.2482 0 0 -1 -0.00368144 0.0134452 -0.0131294 24.3347 -22.0779 -8.18097 
2891 181 3 1.008 0.03 7.30121 16.0664 7.16173 7.30121 16.0664 -42.0206 0 0 -1 -0.0100639 -0.0408645 -0.0294133 3.47689 12.0626 13.5247 
8110 507 3 1.008 0.03 8.40506 12.0022 3.67766 57.5874 12.0022 102.042 1 0 2 0.0101229 0.0114707 0.00413479 -0.855952 2.1462 4.6295 
8105 507 3 1.008 0.03 8.3142 13.8434 1.85519 57.4965 13.8434 100.22 1 0 2 -0.020676 0.0190723 -0.00484098 -1.57556 -4.39016 9.81353 
8112 507 3 1.008 0.03 7.82878 13.5667 4.22251 57.0111 13.5667 102.587 1 0 2 0.0113467 0.00429016 -0.00295957 -18.0915 6.72696 8.19006 
8104 507 3 1.008 0.03 8.50256 16.1361 1.7069 57.6849 16.1361 100.072 1 0 2 -0.0200246 0.00501996 -0.00500507 3.6262 -4.19974 4.01655 
2884 181 2 12.01 0.14 4.44724 13.2804 6.22036 4.44724 13.2804 -42.962 0 0 -1 0.00172576 -0.00698269 0.000376655 -8.82893 69.9831 -38.1522 
2889 181 3 1.008 0.03 3.43013 13.6774 6.03091 3.43013 13.6774 -43.1514 0 0 -1 -0.0197117 -0.0154661 0.0156598 6.75553 -13.7169 8.18449 
382 24 3 1.008 0.03 1.33769 16.4578 3.67822 148.885 -32.7245 3.67822 3 -1 0 -0.00628792 0.0022706 -0.0393794 6.0777 -2.11339 8.06358 
384 24 3 1.008 0.03 2.13468 16.137 5.27547 149.682 -33.0453 5.27547 3 -1 0 0.0242906 -0.00618974 0.0243588 -6.31998 -16.3029 8.80031 
2892 181 3 1.008 0.03 8.44595 14.7268 6.64941 8.44595 14.7268 -42.5329 0 0 -1 0.00999231 -6.66973e-05 -0.0076587 -21.7654 25.1151 -4.95821 
9849 618 6 16 -0.53 1.98617 14.7382 1.87451 51.1685 63.9205 1.87451 1 1 0 -0.0028598 -0.00214314 -0.00488932 -29.9251 -24.2708 14.7393 
2895 181 3 1.008 0.03 3.05013 11.1762 5.86794 3.05013 11.1762 -43.3144 0 0 -1 0.000332232 -0.00347053 -0.00179603 -8.4005 10.1341 14.6794 
2881 181 1 16 -0.4 6.54758 14.1616 6.91165 6.54758 14.1616 -42.2707 0 0 -1 0.00658565 -0.00751773 -0.00205249 20.8814 2.16569 -8.33047 
9850 618 6 16 -0.53 1.0025 13.1898 3.61894 50.1849 62.3721 3.61894 1 1 0 -0.0073927 0.00594015 -0.0028986 -2.19459 3.4079 -42.9567 
4412 276 3 1.008 0.03 5.10281 12.0907 0.817946 5.10281 61.2731 99.1826 0 1 2 -0.00610243 0.000258943 -0.0132769 17.6082 38.6875 -24.7334 
9619 602 8 19 -0.16 11.4362 9.04792 7.31662 60.6186 58.2303 56.499 1 1 1 -0.00164415 0.00263157 -0.00351795 -9.94928 -3.06264 -13.3292 
4682 293 3 1.008 0.03 10.2225 10.4547 2.78113 -38.9599 59.637 51.9635 -1 1 1 0.0108266 -0.0117624 -0.0208456 -16.0409 -8.51684 -9.02445 
7807 488 3 1.008 0.03 14.9187 12.011 1.25649 64.101 12.011 1.25649 1 0 0 -0.00287368 0.00874725 -0.0161733 -14.9714 2.74807 9.70541 
9620 602 8 19 -0.16 13.5286 9.2995 7.33852 62.7109 58.4818 56.5209 1 1 1 -0.000150555 0.00113417 -0.000644209 -0.282173 12.9365 9.2539 
8103 507 3 1.008 0.03 8.99654 16.0859 3.41876 58.1789 16.0859 101.783 1 0 2 -0.0175822 -0.00717242 0.0160693 0.51704 -9.75456 -14.7373 
8102 507 2 12.01 0.11 8.66653 12.9111 4.2323 57.8489 12.9111 102.597 1 0 2 -0.00832981 -0.00369575 0.000883098 16.2756 -14.6704 4.44922 
8099 507 2 12.01 0.14 9.24893 15.7137 2.39777 58.4313 15.7137 100.762 1 0 2 0.00413658 0.00169009 -0.00529493 -21.279 34.0221 17.377 
4678 293 2 12.01 0.11 11.2852 8.61394 4.22846 -37.8972 57.7963 53.4108 -1 1 1 0.00129571 0.00023634 0.00358603 -8.37449 -15.3213 -7.58237 
4674 293 1 16 -0.4 11.9318 9.77118 3.70735 -37.2506 58.9535 52.8897 -1 1 1 0.00268975 -0.00646084 -0.00285607 -14.2574 15.8593 -28.1684 
4686 293 3 1.008 0.03 10.3281 8.86018 4.73511 -38.8542 58.0425 53.9175 -1 1 1 -0.00118863 0.00465037 0.0147647 13.6651 -0.390487 -4.06797 
8100 507 2 12.01 0.14 9.24421 14.2024 2.29551 58.4266 14.2024 100.66 1 0 2 -0.00594009 -0.000971986 0.00106376 15.747 -4.82888 20.2105 
8106 507 3 1.008 0.03 9.97725 14.0629 1.53 59.1596 14.0629 99.8947 1 0 2 -0.017248 -0.00367446 -0.0206086 8.56408 -15.4375 -7.45204 
8111 507 3 1.008 0.03 8.97136 12.6457 5.27607 58.1537 12.6457 103.641 1 0 2 -0.00466516 0.0177854 0.0223616 -6.64591 5.00336 -18.4236 
8098 507 1 16 -0.4 9.70351 13.5732 3.54702 58.8859 13.5732 101.912 1 0 2 -0.00491335 0.0019044 0.000978519 -4.97915 13.1218 -27.5584 
4953 310 3 1.008 0.03 13.2024 13.9203 2.57804 62.3847 13.9203 2.57804 1 0 0 0.0202357 0.0104233 0.0102711 -9.31581 8.8232 13.0736 
4948 310 2 12.01 0.14 13.2034 14.4551 3.54867 62.3857 14.4551 3.54867 1 0 0 0.000841249 -0.00167666 -0.000785378 12.1963 26.8088 -26.5891 
4947 310 2 12.01 0.14 12.9422 13.6328 4.77903 62.1245 13.6328 4.77903 1 0 0 -0.000907841 0.00286816 -0.00156203 -50.4653 -34.5971 -21.232 
4951 310 3 1.008 0.03 11.9523 13.0704 4.60773 61.1347 13.0704 4.60773 1 0 0 -0.00799021 0.00514931 -0.0207452 38.0442 14.2887 7.82321 
4946 310 1 16 -0.4 14.4852 15.1112 3.67525 63.6675 15.1112 3.67525 1 0 0 0.00141465 -0.00118769 -0.00197426 -2.70133 -14.4347 11.3459 
4952 310 3 1.008 0.03 12.7767 14.2771 5.60421 61.959 14.2771 5.60421 1 0 0 -0.00032402 0.0129553 0.00870652 -5.67891 10.612 14.3663 
4945 310 1 16 -0.4 14.0584 12.7993 5.01525 63.2407 12.7993 5.01525 1 0 0 0.00270108 0.00423014 -0.00448181 -22.4958 -5.72593 2.07371 
10454 665 9 24.305 2 15.5623 13.8197 4.78469 64.7447 13.8197 4.78469 1 0 0 -0.00632013 0.00335271 0.0085841 43.7478 -1.13772 -49.2466 
7798 488 2 12.01 0.11 14.8454 11.9214 2.35419 64.0277 11.9214 2.35419 1 0 0 0.0004892 0.00825549 0.0100138 7.84382 -9.3801 9.32011 
7806 488 3 1.008 0.03 13.8377 12.0393 2.78463 63.0201 12.0393 2.78463 1 0 0 -0.00748481 -0.0019273 -0.0321245 8.54654 -5.5199 -19.0553 
4956 310 3 1.008 0.03 12.9295 11.0674 5.54537 62.1119 11.0674 5.54537 1 0 0 0.0284255 0.0108088 -0.00792404 13.0585 11.5075 -1.57162 
4949 310 2 12.01 0.11 13.7096 11.7707 5.911 62.8919 11.7707 5.911 1 0 0 0.00105949 0.00674048 -0.00288822 -15.0563 -25.0523 -7.55741 
4955 310 3 1.008 0.03 13.3244 12.1169 6.84741 62.5068 12.1169 6.84741 1 0 0 -0.0112706 -0.0146847 0.00219124 0.251232 8.61798 13.0933 
4957 310 3 1.008 0.03 14.6063 11.2018 6.08603 63.7887 11.2018 6.08603 1 0 0 0.000267836 -0.00547868 0.00286723 3.00678 -9.13612 5.652 
9826 616 6 16 -0.53 15.2219 14.8049 6.40365 64.4043 14.8049 6.40365 1 0 0 -0.00543335 -0.00508819 4.70422e-06 -16.1745 29.1708 59.1145 
4954 310 3 1.008 0.03 12.4015 15.191 3.5145 61.5839 15.191 3.5145 1 0 0 -0.0176994 -0.00172192 -0.0150969 0.276306 2.66122 -4.67668 
8097 507 1 16 -0.4 10.5091 16.2367 2.0349 59.6915 16.2367 100.4 1 0 2 0.00104751 0.00417961 -0.000154467 10.3827 -20.0683 5.88481 
4676 293 2 12.01 0.14 11.2609 10.3577 2.53217 -37.9214 59.5401 51.7145 -1 1 1 -0.00272511 0.0029277 -4.62511e-05 39.6257 21.8396 44.3597 
4959 310 3 1.008 0.03 15.0988 15.6191 1.74444 64.2812 15.6191 1.74444 1 0 0 -0.00314798 -0.0041923 -0.0215357 -2.8004 -3.43849 -13.0865 
4950 310 2 12.01 0.11 14.7379 16.0817 2.64392 63.9202 16.0817 2.64392 1 0 0 0.000702806 0.00308804 0.000246024 4.31551 -27.9504 27.0398 
4681 293 3 1.008 0.03 11.5862 11.4387 2.39608 -37.5962 60.6211 51.5784 -1 1 1 0.0171417 0.0425158 0.0218851 -9.00145 -29.3727 8.25252 
4960 310 3 1.008 0.03 13.8932 16.692 2.50458 63.0755 16.692 2.50458 1 0 0 0.0117652 0.00794497 0.0167913 -20.5459 15.3344 -11.1522 
4958 310 3 1.008 0.03 15.5116 16.7123 3.00943 64.6939 16.7123 3.00943 1 0 0 -0.00800638 0.00254568 -0.00572768 10.8505 10.1086 3.5538 
10154 638 8 19 -0.16 16.7302 9.83868 6.13672 16.7302 9.83868 55.3191 0 0 1 -0.00302416 0.00158258 -0.00225153 0.0944924 -2.85588 -3.12315 
7808 488 3 1.008 0.03 15.0085 10.8574 2.56442 64.1908 10.8574 2.56442 1 0 0 0.0183375 0.00537591 -0.00872886 12.0225 6.22877 1.54882 
7794 488 1 16 -0.4 15.7666 12.84 3.00027 64.9489 12.84 3.00027 1 0 0 -0.00400896 -0.00298833 -0.00443613 -19.2724 -15.9272 -1.85991 
4675 293 2 12.01 0.14 11.677 9.61612 1.27316 -37.5053 58.7985 50.4555 -1 1 1 -0.00646547 -0.0115748 0.00178398 31.1887 4.63885 16.8776 
4409 276 3 1.008 0.03 9.39807 11.8482 0.418717 9.39807 61.0305 98.7834 0 1 2 0.00579499 -0.015552 -0.0130973 -15.1484 0.808807 -2.16214 
4673 293 1 16 -0.4 12.8362 10.3121 0.814872 -36.3461 59.4945 49.9972 -1 1 1 0.000297623 0.00725165 -0.000895716 -14.2372 0.0936166 17.7561 
4679 293 3 1.008 0.03 10.9182 9.76975 0.597641 -38.2641 58.9521 49.78 -1 1 1 -0.0209243 0.0264852 0.00680051 -28.2503 -1.80459 -32.5933 
2857 179 3 1.008 0.03 8.73938 10.7952 7.404 8.73938 10.7952 56.5863 0 0 1 -0.0205968 -0.00241675 0.001526 5.49718 -23.0386 -0.101709 
7503 469 3 1.008 0.03 19.54 11.1339 0.761709 117.905 -38.0485 99.1264 2 -1 2 -0.0172307 0.000372775 0.00720311 5.39684 -9.93064 17.2232 
10153 638 8 19 -0.16 18.7236 9.5607 6.8394 18.7236 9.5607 56.0218 0 0 1 0.00488019 -0.000881661 0.00490043 -5.71205 7.73685 7.79041 
7492 469 2 12.01 0.14 18.3993 8.8555 2.80801 116.764 -40.3269 101.173 2 -1 2 0.00323768 -0.00571571 -0.00975384 -21.1917 -22.0524 28.1646 
7497 469 3 1.008 0.03 18.6423 9.22235 3.80349 117.007 -39.96 102.168 2 -1 2 -0.00690219 -0.0129406 0.0153212 7.11608 10.0702 -3.32832 
8587 537 3 1.008 0.03 21.7939 12.3945 3.01675 21.7939 12.3945 3.01675 0 0 0 0.00959802 0.0144487 -0.0330253 -21.1265 7.81676 -2.72909 
8577 537 1 16 -0.4 22.6821 11.5737 1.37497 22.6821 11.5737 1.37497 0 0 0 -3.35576e-05 -0.00450108 -0.00404336 0.527487 -42.8504 27.6693 
8581 537 2 12.01 0.11 22.7566 12.0972 2.68672 22.7566 12.0972 2.68672 0 0 0 -0.00132526 -0.00198187 0.00167064 -21.1263 -16.395 -1.59562 
7490 469 1 16 -0.4 18.3795 9.73507 1.74579 116.744 -39.4473 100.11 2 -1 2 0.00297375 -0.00629897 0.000643062 5.03261 37.2686 -8.54953 
7502 469 3 1.008 0.03 20.4146 9.68739 1.55616 118.779 -39.495 99.9209 2 -1 2 -0.0190607 0.0272588 -0.013184 -15.2525 36.7065 3.412 
7504 469 3 1.008 0.03 19.7414 11.144 2.58684 118.106 -38.0384 100.952 2 -1 2 -0.00246997 -0.00392895 0.0203671 1.96268 -17.7356 -22.078 
7805 488 3 1.008 0.03 17.4657 16.3874 4.55676 66.648 16.3874 4.55676 1 0 0 0.0141368 -0.018966 0.011801 3.79323 -2.38574 0.762529 
10149 638 6 16 -0.53 16.817 12.4686 5.74955 16.817 12.4686 54.9319 0 0 1 0.00134236 0.0059171 -0.00192548 -21.2753 29.3706 -7.69797 