ITEM: TIMESTEP
4700000
ITEM: NUMBER OF ATOMS
10479
ITEM: BOX BOUNDS pp pp pp
4.0882558190751794e-01 4.9591174418091420e+01
4.0882558190751794e-01 4.9591174418091420e+01
4.0882558190751794e-01 4.9591174418091420e+01
ITEM: ATOMS id mol type mass q x y z xu yu zu ix iy iz vx vy vz fx fy fz 
9176 574 3 1.008 0.03 1.66659 7.78339 2.09939 1.66659 7.78339 -47.083 0 0 -1 -0.000350891 -0.0206175 -0.0128938 -11.5968 -1.98619 -1.91069 
9219 577 2 12.01 0.14 7.20088 6.835 6.3124 56.3832 -42.3473 55.4947 1 -1 1 -0.00148322 0.00873926 0.0035685 -19.3331 -11.1976 -42.9439 
5924 371 2 12.01 0.14 2.23733 3.27132 0.974053 2.23733 101.636 99.3388 0 2 2 0.00137425 -0.00185425 0.00329041 2.51499 27.5592 -4.50022 
9223 577 3 1.008 0.03 7.05741 7.70231 5.68594 56.2398 -41.48 54.8683 1 -1 1 -0.00412566 -0.00257057 -0.00960461 6.597 8.88211 -1.84109 
5922 371 1 16 -0.4 2.91517 3.50721 2.19022 2.91517 101.872 100.555 0 2 2 0.00263763 -0.0016929 0.00307967 -8.19742 -6.60858 21.1268 
9224 577 3 1.008 0.03 6.8181 5.99186 5.71305 56.0004 -43.1905 54.8954 1 -1 1 0.00161758 0.000656177 -0.00934144 14.9388 5.04527 -2.60188 
2053 129 2 12.01 0.11 5.97969 3.42067 2.56382 55.162 52.603 51.7462 1 1 1 0.0176594 -0.00117216 0.0088148 44.4055 -4.53347 36.1592 
2055 129 3 1.008 0.03 6.76467 0.765863 2.64182 55.947 49.9482 51.8242 1 1 1 -0.0111528 0.00119737 -0.0106948 7.69075 4.62418 -7.68968 
5926 371 2 12.01 0.11 2.24728 4.37653 3.12662 2.24728 102.741 101.491 0 2 2 -0.00759767 0.00369 0.00404737 7.31859 -24.3058 -4.7459 
5105 320 1 16 -0.4 5.52031 8.47912 1.79004 103.885 57.6615 100.155 2 1 2 0.0042245 -0.00215977 0.00525371 24.3145 3.2219 30.0917 
5115 320 3 1.008 0.03 6.05512 6.50253 2.15635 104.42 55.6849 100.521 2 1 2 -0.0312193 0.0121984 0.013405 2.69898 -4.95258 -10.0207 
6112 382 3 1.008 0.03 0.824505 7.12241 5.95434 -97.5402 -42.0599 -190.775 -2 -1 -4 0.00688745 0.00724767 -0.00712437 9.49805 -27.4014 8.14793 
5934 371 3 1.008 0.03 1.30751 4.77373 2.82399 1.30751 103.138 101.189 0 2 2 -0.0100256 -0.0130479 -0.00373681 -10.0621 11.7893 -12.7512 
5936 371 3 1.008 0.03 2.94721 5.10732 3.40492 2.94721 103.472 101.77 0 2 2 -0.00595895 0.0274204 0.00658094 12.4868 27.7687 -0.042753 
2050 129 1 16 -0.4 7.79906 2.23318 4.59311 56.9814 51.4155 53.7755 1 1 1 0.00017371 0.00389704 -0.00636071 -11.3027 5.32646 41.2191 
1421 89 3 1.008 0.03 5.07813 3.08435 5.78809 -44.1042 52.2667 54.9704 -1 1 1 0.00329792 9.86685e-05 -0.0183635 0.7022 10.0667 -10.948 
2049 129 1 16 -0.4 6.69082 2.59245 1.65917 55.8732 51.7748 50.8415 1 1 1 -0.0027775 -0.00666445 -0.00126145 -3.16906 11.795 -1.03079 
2051 129 2 12.01 0.14 7.42635 1.56153 2.26141 56.6087 50.7439 51.4438 1 1 1 0.00245493 0.00291431 -0.00952294 21.0266 4.25112 41.8194 
5116 320 3 1.008 0.03 7.35225 7.62098 2.08153 105.717 56.8033 100.446 2 1 2 0.0164824 0.00778116 -0.000813645 50.9869 6.09723 -7.09367 
5109 320 2 12.01 0.11 6.40299 7.49262 2.41392 104.768 56.675 100.779 2 1 2 -0.00325909 -0.00318085 0.000231413 -87.0732 16.5486 30.0354 
5117 320 3 1.008 0.03 6.25398 7.48545 3.53039 104.619 56.6678 101.895 2 1 2 0.0038169 -0.0102428 0.011805 13.822 7.60197 -23.9038 
2059 129 3 1.008 0.03 5.40251 4.07058 1.99168 54.5849 53.2529 51.174 1 1 1 0.00758502 0.0112402 0.00268083 -23.9708 19.1259 -14.3499 
478 30 3 1.008 0.03 4.77786 0.553126 3.4992 53.9602 98.9178 52.6815 1 2 1 0.00660628 0.0197583 -0.0165237 -21.5577 -27.1804 11.746 
2061 129 3 1.008 0.03 6.70242 4.07807 3.15308 55.8848 53.2604 52.3354 1 1 1 0.00752508 -0.0017172 -0.000352104 -22.8754 -20.0484 -16.5231 
5935 371 3 1.008 0.03 2.02656 3.96044 4.09631 2.02656 102.325 102.461 0 2 2 -0.0117092 0.0228559 -0.000270634 -0.0784948 -16.7909 -1.19142 
9217 577 1 16 -0.4 8.53032 6.61066 6.69021 57.7127 -42.5717 55.8726 1 -1 1 -0.00225696 -0.00107021 -0.00315736 12.0929 -5.35087 -0.273302 
2052 129 2 12.01 0.14 8.44813 2.02612 3.41471 57.6305 51.2085 52.5971 1 1 1 -7.19763e-05 0.000816665 -0.00655875 -10.2 18.789 -81.5943 
9225 577 3 1.008 0.03 5.1875 6.96434 6.97695 54.3698 -42.218 56.1593 1 -1 1 0.0122833 -0.00519628 0.00545462 -4.63189 0.849483 -6.38073 
2056 129 3 1.008 0.03 8.01827 1.19829 1.43421 57.2006 50.3806 50.6166 1 1 1 -0.0153078 0.0155102 -0.0034748 1.20232 -10.6395 -1.7027 
9171 574 2 12.01 0.14 1.01814 7.80287 1.20693 1.01814 7.80287 -47.9754 0 0 -1 0.00682026 -0.000845507 -0.00154352 3.18066 31.5812 -32.4379 
6110 382 3 1.008 0.03 0.899947 5.31921 5.58267 -97.4648 -43.8631 -191.147 -2 -1 -4 -0.0261629 0.00234732 -0.00209971 -4.02111 12.15 5.51617 
5921 371 1 16 -0.4 2.17945 0.931072 1.39334 2.17945 99.2958 99.758 0 2 2 -0.00487896 0.00280372 -0.0073123 -21.8091 -7.66578 36.4005 
1419 89 3 1.008 0.03 3.22966 3.24223 5.72791 -45.9527 52.4246 54.9103 -1 1 1 0.0343428 0.0145171 -0.0140925 24.4353 -4.18089 3.80788 
1413 89 2 12.01 0.11 4.16072 3.21289 6.34884 -45.0216 52.3952 55.5312 -1 1 1 -0.00617764 0.00245876 0.0062213 -26.2756 -62.1001 26.2553 
6102 382 2 12.01 0.11 0.684072 6.07607 6.3611 -97.6806 -43.1063 -190.368 -2 -1 -4 0.00591805 -0.00309131 -0.00129019 6.62477 14.1751 -33.576 
5923 371 2 12.01 0.14 2.47515 1.87769 0.450497 2.47515 100.242 98.8152 0 2 2 -0.00180168 3.28652e-05 -0.00723691 -4.3835 -1.78333 -36.1161 
5930 371 3 1.008 0.03 1.16312 3.41377 1.04781 1.16312 101.778 99.4125 0 2 2 0.0059708 0.0150257 -0.0146211 -1.19606 4.08757 1.80492 
2060 129 3 1.008 0.03 5.37723 2.82765 3.27147 54.5596 52.01 52.4538 1 1 1 -0.00951666 0.0030792 -0.00300128 0.139454 6.8854 -7.13541 
1420 89 3 1.008 0.03 4.15882 4.14282 6.88362 -45.0235 53.3252 56.066 -1 1 1 0.0153413 -0.00956871 0.016496 5.27022 7.57614 10.9434 
2062 129 3 1.008 0.03 8.16907 2.95382 6.54928 57.3514 52.1362 55.7316 1 1 1 0.0156102 -0.0249565 -0.0368727 -7.19273 5.33504 -6.18835 
1416 89 3 1.008 0.03 2.23578 1.50224 6.88485 -46.9466 50.6846 56.0672 -1 1 1 0.00699583 -0.00817314 -0.041185 -19.5978 -5.76382 -28.9963 
1409 89 1 16 -0.4 4.15161 1.99052 7.22288 -45.0307 51.1729 56.4052 -1 1 1 0.00203826 0.0088223 -6.26147e-05 9.13462 52.5788 -36.2872 
9220 577 2 12.01 0.14 6.18695 6.86198 7.37925 55.3693 -42.3204 56.5616 1 -1 1 -0.00681344 -0.00157804 -0.00245675 -8.69187 18.4499 10.0564 
2063 129 3 1.008 0.03 9.47756 2.03413 5.91312 58.6599 51.2165 55.0955 1 1 1 -0.0103531 -0.0337709 0.00155806 -20.1593 14.8215 -15.1714 
2054 129 2 12.01 0.11 8.67041 2.76344 5.5994 57.8528 51.9458 54.7817 1 1 1 -0.00542978 -0.00187959 0.00103748 26.5572 -24.2426 9.57205 
2064 129 3 1.008 0.03 9.18603 3.66299 5.24642 58.3684 52.8453 54.4288 1 1 1 -0.0133688 -0.0220413 0.00139127 -4.49577 -0.0109094 4.62597 
2057 129 3 1.008 0.03 9.18918 1.25971 3.46619 58.3715 50.4421 52.6485 1 1 1 -0.000439819 -0.0317733 0.00297648 11.6471 -8.49908 9.88921 
9221 577 2 12.01 0.11 9.43856 6.66776 5.58175 58.6209 -42.5146 54.7641 1 -1 1 -0.00571925 3.59509e-05 0.00159222 -3.42033 26.4422 8.67856 
9227 577 3 1.008 0.03 9.29154 5.98955 4.76288 58.4739 -43.1928 53.9452 1 -1 1 -0.00703581 -0.0271404 -0.000536895 -0.417257 -21.4682 2.69566 
2058 129 3 1.008 0.03 8.94666 2.97607 3.06997 58.129 52.1584 52.2523 1 1 1 -0.00422871 0.00725269 -0.00502476 -8.67192 -21.0954 8.36455 
9229 577 3 1.008 0.03 10.448 6.66738 6.00646 59.6303 -42.515 55.1888 1 -1 1 0.00085871 -0.00486579 -0.00496191 0.0257759 -6.49138 -9.05815 
7235 453 2 12.01 0.14 11.9751 0.639012 1.17802 110.34 99.0037 50.3604 2 2 1 -0.00272106 0.00156719 0.00209914 -45.7587 -47.8693 -0.209274 
7241 453 3 1.008 0.03 10.2551 2.11667 1.36856 108.62 100.481 50.5509 2 2 1 0.0223081 0.0136469 -0.00699366 43.3071 -34.2475 -56.5142 
7233 453 1 16 -0.4 12.739 1.26009 2.09211 111.104 99.6248 51.2745 2 2 1 0.000989773 -0.00262184 -0.0003763 36.3743 31.2613 33.9572 
7237 453 2 12.01 0.11 12.1069 1.65408 3.30305 110.472 100.019 52.4854 2 2 1 -0.00708138 -0.00430054 -0.00575424 32.0634 37.3903 -2.6165 
7343 459 3 1.008 0.03 16.5841 3.21582 3.61858 -81.7806 150.763 52.8009 -2 3 1 0.00680739 0.0144125 -0.00633306 -33.0424 -13.5257 26.031 
7244 453 3 1.008 0.03 11.4243 2.46493 3.1728 109.789 100.83 52.3552 2 2 1 0.0159315 -0.00232549 -0.0154058 -22.8662 -1.45307 -6.07577 
7243 453 3 1.008 0.03 12.7561 2.22661 3.98365 111.121 100.591 53.166 2 2 1 0.0207191 0.0027638 -0.0103196 9.0953 -14.6393 -8.31724 
4674 293 1 16 -0.4 12.9571 2.98983 6.75015 -36.2252 52.1722 55.9325 -1 1 1 0.00366517 -0.00327315 -0.00486714 19.7272 30.3962 -16.553 
2428 152 3 1.008 0.03 13.3631 4.72757 2.64176 -134.184 53.9099 101.006 -3 1 2 0.00228567 -0.00957595 0.0177475 2.77606 -29.4374 15.0606 
2429 152 3 1.008 0.03 13.916 6.35503 2.6852 -133.631 55.5374 101.05 -3 1 2 -0.0123352 -0.0244635 -0.0060415 -17.7573 -9.60659 0.639953 
4682 293 3 1.008 0.03 13.7738 4.38578 5.75272 -35.4086 53.5681 54.9351 -1 1 1 0.0275333 0.00828801 -0.00230542 0.632549 15.4811 12.416 
2424 152 3 1.008 0.03 12.2732 8.00834 1.96857 -135.274 57.1907 100.333 -3 1 2 0.0197042 0.0152252 0.000498079 2.68997 4.47242 5.1943 
7236 453 2 12.01 0.14 10.9456 1.60089 0.532289 109.31 99.9656 49.7146 2 2 1 -0.00129952 0.000744302 0.00488033 -74.0752 8.96983 37.2557 
2427 152 3 1.008 0.03 12.5397 6.03067 3.77716 -135.007 55.213 102.142 -3 1 2 0.0145214 0.00792934 0.011741 16.8605 -28.261 -4.66759 
2421 152 2 12.01 0.11 13.0139 5.70518 2.8155 -134.533 54.8875 101.18 -3 1 2 -0.00961924 -0.00061526 -0.00341371 18.9519 54.991 17.4553 
2418 152 1 16 -0.4 9.35937 6.60058 0.955904 -138.188 55.7829 99.3206 -3 1 2 0.00303859 0.00209889 -0.00270002 16.6091 -33.3586 -27.9751 
2423 152 3 1.008 0.03 10.9086 7.22558 2.9313 -136.638 56.4079 101.296 -3 1 2 0.00416036 -0.0108376 0.00810657 14.7337 10.0982 -13.2331 
2419 152 2 12.01 0.14 11.5136 7.23504 1.98935 -136.033 56.4174 100.354 -3 1 2 0.00329203 -0.00185144 0.00781639 -39.7846 -5.2737 -7.23486 
2417 152 1 16 -0.4 12.0745 5.95369 1.8511 -135.473 55.136 100.216 -3 1 2 -0.00443593 0.00289439 9.73567e-05 -8.6369 1.93132 -25.5644 
7245 453 3 1.008 0.03 11.7821 0.839958 3.85974 110.147 99.2047 53.0421 2 2 1 -0.0144071 0.00472914 0.000146064 -20.1397 -24.8021 17.1396 
4368 273 3 1.008 0.03 15.8326 6.69907 1.35746 15.8326 6.69907 198.087 0 0 4 0.00248311 0.0146149 0.0140143 8.74967 -3.59879 -39.5293 
9228 577 3 1.008 0.03 9.33191 7.59754 5.02029 58.5143 -41.5848 54.2026 1 -1 1 0.00573548 0.00985479 0.000372447 1.05698 6.20097 9.99504 
2425 152 3 1.008 0.03 10.0345 8.42548 0.901375 -137.513 57.6078 99.2661 -3 1 2 0.00668515 0.0249138 0.0098493 7.77869 6.67578 1.39203 
2420 152 2 12.01 0.14 10.5103 7.45372 0.810561 -137.037 56.6361 99.1753 -3 1 2 0.00166643 -0.0063073 0.00349258 -16.6938 -8.98778 18.8476 
4681 293 3 1.008 0.03 12.4751 5.1181 6.80035 -36.7072 54.3004 55.9827 -1 1 1 0.0171215 -0.0226256 -0.0160111 21.8612 -16.7369 -3.9827 
4676 293 2 12.01 0.14 13.3434 4.39265 6.77235 -35.839 53.575 55.9547 -1 1 1 -0.00122149 0.0102191 -0.00390298 -18.7869 -12.8391 -20.4289 
8602 538 3 1.008 0.03 22.5342 0.585574 3.49692 -26.6481 49.7679 3.49692 -1 1 0 -0.0146133 0.0201606 0.010391 -6.43699 -2.80782 10.0494 
301 19 3 1.008 0.03 24.2114 5.53837 2.63038 24.2114 103.903 -46.552 0 2 -1 -0.00174968 0.0226577 -0.0011285 -8.92116 -11.64 13.7706 
7337 459 3 1.008 0.03 17.445 1.14683 3.72983 -80.9197 148.694 52.9122 -2 3 1 -0.00579452 -0.00886028 0.00169193 -26.361 -11.8798 24.2723 
7334 459 2 12.01 0.11 17.4162 3.58054 3.14024 -80.9485 151.128 52.3226 -2 3 1 0.00414323 -0.00303331 0.00652088 47.2798 -25.5814 0.979097 
9602 601 6 16 -0.53 18.2266 0.483735 6.01055 -30.9558 49.6661 6.01055 -1 1 0 0.00694487 0.00257964 0.00163117 -0.608237 -18.0136 15.9985 
8605 538 3 1.008 0.03 23.8138 3.0991 7.33276 -25.3686 52.2814 7.33276 -1 1 0 -0.0326741 -0.0127884 0.00163074 4.55153 -12.3609 11.7303 
7332 459 2 12.01 0.14 18.2862 1.35263 3.16437 -80.0784 148.9 52.3467 -2 3 1 -0.00510913 0.00330621 0.000670687 34.6445 28.4586 -44.6153 
7338 459 3 1.008 0.03 19.1996 1.50275 3.75754 -79.1651 149.05 52.9399 -2 3 1 0.000488314 0.0136848 -0.0108279 -17.5652 12.7748 5.81414 
7330 459 1 16 -0.4 17.9638 2.50961 2.3311 -80.4009 150.057 51.5134 -2 3 1 0.00309023 0.00730439 0.00640545 3.58518 -4.55404 23.9035 
7342 459 3 1.008 0.03 17.0496 4.37657 2.62553 -81.3151 151.924 51.8079 -2 3 1 -0.0120845 -0.00469965 -0.023496 -13.7575 33.7384 -36.6878 
7344 459 3 1.008 0.03 18.093 4.05174 3.86078 -80.2717 151.599 53.0431 -2 3 1 0.00220897 -0.0203553 -0.00666217 3.53312 -11.6726 -0.05984 
8601 538 3 1.008 0.03 21.189 1.27023 4.45282 -27.9933 50.4526 4.45282 -1 1 0 0.00749226 -0.0163792 -0.00169085 -0.342094 -16.3206 -0.284125 
8596 538 2 12.01 0.14 22.116 0.682316 4.52032 -27.0663 49.8647 4.52032 -1 1 0 0.00802086 0.00176827 0.00403656 11.4741 -4.10589 23.515 
8595 538 2 12.01 0.14 23.0665 1.5583 5.32888 -26.1158 50.7407 5.32888 -1 1 0 -0.00626762 -0.00929776 -0.00207529 21.027 1.9444 -22.8976 
4018 252 1 16 -0.4 20.9139 6.87543 1.24931 20.9139 56.0578 50.4317 0 1 1 0.00108294 -0.000825146 -0.00150319 -5.87626 -8.7835 19.5766 
8593 538 1 16 -0.4 23.205 1.21044 6.70679 -25.9774 50.3928 6.70679 -1 1 0 -0.00781795 0.000774141 -0.00217619 -11.3949 -10.9038 -0.376741 
9593 601 5 32.06 1.02 20.1759 3.62168 7.28754 -29.0064 52.804 7.28754 -1 1 0 0.00218601 0.00475375 -0.0014529 18.534 -32.5856 -9.16614 
8599 538 3 1.008 0.03 22.5964 2.52351 5.23087 -26.5859 51.7059 5.23087 -1 1 0 -0.0137919 -0.00679069 0.00264818 11.7557 16.4342 2.91693 
8600 538 3 1.008 0.03 24.0766 1.53571 4.82819 -25.1058 50.7181 4.82819 -1 1 0 0.00811988 -0.014242 0.0323953 -21.8591 4.95245 9.48684 
293 19 2 12.01 0.11 23.6771 5.49474 3.60863 23.6771 103.859 -45.5737 0 2 -1 -0.00399292 0.00424116 0.00199548 23.5787 13.3385 -32.3195 
9595 601 6 16 -0.53 20.6047 4.20482 6.05315 -28.5776 53.3872 6.05315 -1 1 0 -0.00325459 -0.00426237 -0.000873917 -2.17099 9.80992 -13.0821 
9600 601 5 32.06 1.02 18.9707 1.03147 7.11461 -30.2117 50.2138 7.11461 -1 1 0 -0.000241617 -0.000242223 0.00156739 69.5728 22.1015 7.43247 
8495 531 3 1.008 0.03 22.4727 7.31051 5.99895 22.4727 56.4929 5.99895 0 1 0 -0.0134494 -0.0411404 -0.0260304 -2.98766 -16.7536 -10.0582 
9592 601 4 14.01 -0.66 19.0058 2.59507 7.07289 -30.1766 51.7774 7.07289 -1 1 0 -0.00618739 0.00982812 -0.00285105 -16.4817 6.06073 7.7527 
4032 252 3 1.008 0.03 21.5191 4.81266 1.26179 21.5191 53.995 50.4441 0 1 1 0.00898188 -0.00395903 -0.00676813 -3.47413 7.53247 7.56933 
4023 252 3 1.008 0.03 19.4888 8.51952 3.83187 19.4888 57.7019 53.0142 0 1 1 -0.00151759 0.00847716 0.0212989 0.315577 0.424986 -10.3859 
4019 252 2 12.01 0.14 20.1507 8.46409 2.9514 20.1507 57.6464 52.1337 0 1 1 0.00291699 0.00909483 -0.00128533 -20.0564 -13.4454 6.93304 
4020 252 2 12.01 0.14 20.1497 6.99565 2.46843 20.1497 56.178 51.6508 0 1 1 -0.00206011 0.00230524 0.000471443 8.61524 -1.7114 27.9372 
4025 252 3 1.008 0.03 20.357 6.27755 3.33133 20.357 55.4599 52.5137 0 1 1 0.0188353 -0.0132505 -0.00721786 7.08167 19.6412 -30.7219 
4026 252 3 1.008 0.03 19.106 6.82633 2.27286 19.106 56.0087 51.4552 0 1 1 0.0245419 0.0216745 0.00715712 -8.25001 -7.73711 -9.29641 
8486 531 2 12.01 0.11 22.3284 8.17193 6.60636 22.3284 57.3543 6.60636 0 1 0 -0.00389293 0.00624242 0.00129666 -1.62414 -15.1898 9.97265 
8496 531 3 1.008 0.03 21.4604 8.02353 7.24667 21.4604 57.2059 7.24667 0 1 0 0.0293254 0.0161053 0.00740756 -5.70451 2.76063 -4.06344 
6303 394 3 1.008 0.03 23.803 1.83876 0.573262 72.9854 51.0211 148.12 1 1 3 0.00221248 -0.00449422 -0.00754601 1.12565 1.35391 -10.6778 
4362 273 3 1.008 0.03 17.512 8.52645 0.508901 17.512 8.52645 197.238 0 0 4 -0.0154178 0.00300338 0.00578412 -6.92884 -15.8576 -15.5174 
299 19 3 1.008 0.03 22.7013 5.03033 3.52926 22.7013 103.395 -45.6531 0 2 -1 0.0162988 -0.00844764 0.00146 -7.19206 6.02893 -5.1392 
300 19 3 1.008 0.03 23.6467 6.51833 3.9137 23.6467 104.883 -45.2687 0 2 -1 0.0161498 -0.0193429 -0.028106 -12.2482 14.1826 3.93326 
289 19 1 16 -0.4 24.342 4.83481 4.61398 24.342 103.2 -44.5684 0 2 -1 0.00566381 0.00344316 0.00145282 11.6276 -28.9908 24.928 
4022 252 2 12.01 0.11 20.8834 5.54716 0.755166 20.8834 54.7295 49.9375 0 1 1 -0.00871078 0.00293349 -0.00111512 -5.89119 -4.3711 -5.41158 
8597 538 2 12.01 0.11 24.1898 2.05467 7.31144 -24.9925 51.237 7.31144 -1 1 0 0.000459954 -0.00421499 0.00215131 4.07982 14.7552 -23.1597 
4030 252 3 1.008 0.03 19.8429 5.17752 0.737549 19.8429 54.3599 49.9199 0 1 1 -0.00346268 -0.0154396 -0.00116981 9.194 -0.0775051 -3.71854 
8482 531 1 16 -0.4 23.4764 8.30449 7.39432 23.4764 57.4868 7.39432 0 1 0 -0.00363987 -0.000924742 -0.00808042 3.58643 37.8666 -1.56887 
8539 534 3 1.008 0.03 0.853051 14.5301 1.73094 99.2177 14.5301 1.73094 2 0 0 0.0118206 0.0156372 -0.0254312 -6.64734 -3.82218 12.7882 
1039 65 3 1.008 0.03 3.33068 14.1127 1.59321 200.06 -35.0696 -47.5891 4 -1 -1 -0.00602139 -0.00222365 0.00734926 -11.7756 -26.26 -3.10979 
1025 65 1 16 -0.4 2.29399 14.1303 5.91129 199.023 -35.052 -43.2711 4 -1 -1 0.000319405 -0.00122454 0.00732253 29.8551 12.7014 14.2675 
1038 65 3 1.008 0.03 4.80797 15.0036 1.91399 201.537 -34.1787 -47.2684 4 -1 -1 0.0109639 -0.012361 0.000958925 -25.7255 -0.435607 5.43432 
1103 69 3 1.008 0.03 7.25799 16.2026 0.499491 105.623 16.2026 -97.8652 2 0 -2 -0.00554027 -0.0144319 0.00927636 13.9463 -4.1464 39.365 
5108 320 2 12.01 0.14 5.00892 10.7469 1.30298 103.374 59.9292 99.6677 2 1 2 -0.00223513 0.00211509 -0.00502801 -9.97317 14.346 43.0257 
1028 65 2 12.01 0.14 3.94008 14.0458 4.17675 200.669 -35.1365 -45.0056 4 -1 -1 -5.79602e-05 -0.00273248 -0.00411388 -28.2546 16.6546 -38.1822 
5111 320 3 1.008 0.03 5.13774 9.94895 3.35312 103.502 59.1313 101.718 2 1 2 -0.0148154 0.0279813 -0.00377745 -6.58148 -7.7129 -1.10092 
372 24 2 12.01 0.14 8.41105 11.2803 5.42581 155.958 -37.9021 5.42581 3 -1 0 -0.00296622 -0.000882294 -0.00763789 -3.20807 73.5697 7.25557 
369 24 1 16 -0.4 5.99982 10.9354 5.51931 153.547 -38.247 5.51931 3 -1 0 0.00290875 0.0048146 -0.000811916 -27.5456 9.67957 5.21419 
371 24 2 12.01 0.14 7.23592 10.874 6.20817 154.783 -38.3083 6.20817 3 -1 0 0.000766418 -0.00602906 0.00691134 -23.8194 -53.4816 31.5631 
376 24 3 1.008 0.03 7.42098 9.8348 6.54171 154.968 -39.3476 6.54171 3 -1 0 0.00789782 0.014611 0.000255932 -5.02892 10.1703 -4.94894 
1030 65 2 12.01 0.11 3.69027 14.9737 2.07411 200.42 -34.2086 -47.1082 4 -1 -1 0.002274 0.00719432 -0.00982349 26.6598 52.0037 -8.13143 
5107 320 2 12.01 0.14 5.61597 9.82112 2.38418 103.981 59.0035 100.749 2 1 2 -0.00774068 0.00876581 0.000336591 -11.4947 -16.6692 -37.3851 
5112 320 3 1.008 0.03 6.59616 10.1952 2.54094 104.961 59.3776 100.906 2 1 2 -0.0139162 -0.00961701 -0.0064103 24.1219 -5.2834 -0.21939 
1026 65 1 16 -0.4 3.32929 15.156 3.44875 200.059 -34.0264 -45.7336 4 -1 -1 -0.00467281 -0.00217467 0.00063212 17.3202 -41.1469 -6.22621 
1033 65 3 1.008 0.03 5 14.1955 3.97254 201.729 -34.9869 -45.2098 4 -1 -1 -0.0041631 -0.00198281 -0.024936 4.43703 -15.5499 3.58566 
377 24 3 1.008 0.03 8.13183 12.2941 5.0985 155.679 -36.8883 5.0985 3 -1 0 -0.0238464 -0.0284975 0.00628336 4.43519 -11.9955 -11.0904 
1034 65 3 1.008 0.03 3.54584 13.0096 3.83595 200.275 -36.1727 -45.3464 4 -1 -1 0.00423616 -0.018506 -0.00611568 18.166 40.2036 14.6994 
1027 65 2 12.01 0.14 3.7009 14.3642 5.62078 200.43 -34.8182 -43.5616 4 -1 -1 -0.00160931 -0.000657469 -0.00729955 -18.6521 -48.6349 21.9707 
375 24 3 1.008 0.03 7.14191 11.3999 7.1476 154.689 -37.7824 7.1476 3 -1 0 -0.0111943 0.00211938 0.0149955 3.85315 11.5228 2.09735 
1031 65 3 1.008 0.03 4.04447 15.3349 5.96031 200.774 -33.8475 -43.222 4 -1 -1 -0.0311396 -0.0332084 0.0142284 6.20702 5.87966 -5.75543 
5113 320 3 1.008 0.03 5.1048 11.7758 1.67142 103.469 60.9581 100.036 2 1 2 0.00601081 -0.0157427 -0.0162264 9.53817 -2.05427 -9.08388 
5324 333 3 1.008 0.03 8.40092 14.0502 2.84744 57.5833 112.415 101.212 1 2 2 0.0010167 0.0194379 0.00372443 30.7039 19.5499 -5.61468 
1040 65 3 1.008 0.03 3.28375 15.8161 1.47528 200.013 -33.3662 -47.7071 4 -1 -1 -0.014045 -0.00175556 0.00531857 4.4191 -9.18062 9.96548 
1035 65 3 1.008 0.03 0.829345 14.7224 7.28399 197.559 -34.46 -41.8984 4 -1 -1 0.0163212 0.010197 0.0108385 35.7645 6.21862 -2.66298 
5106 320 1 16 -0.4 3.61719 10.5633 1.48613 101.982 59.7456 99.8508 2 1 2 0.00493603 0.00475698 -0.00222832 -25.6613 -3.31184 -47.7286 
373 24 2 12.01 0.11 4.81936 10.8125 6.38569 152.366 -38.3698 6.38569 3 -1 0 -0.00397255 -0.00893949 0.00270316 28.3388 -36.2003 -8.47266 
379 24 3 1.008 0.03 3.88265 10.6316 5.85997 151.43 -38.5508 5.85997 3 -1 0 -0.0109488 0.0100801 0.0148562 0.685442 10.2096 -5.90898 
380 24 3 1.008 0.03 4.92489 9.8801 6.95536 152.472 -39.3022 6.95536 3 -1 0 -0.00919322 0.0102477 -0.0210606 2.19065 4.16571 -3.01274 
3962 248 3 1.008 0.03 1.13163 11.696 6.3061 50.314 11.696 -42.8763 1 0 -1 -0.0211005 0.00222682 0.0109021 -41.2312 13.6444 43.0053 
6677 418 2 12.01 0.11 7.95306 14.979 6.13202 106.318 -83.3857 55.3144 2 -2 1 -0.000692631 0.00970107 0.00658739 34.5455 -8.44454 -31.8134 
6683 418 3 1.008 0.03 8.60562 15.6368 6.651 106.97 -82.7279 55.8333 2 -2 1 -0.00140218 -0.000224906 -0.00244677 8.85517 14.8479 10.723 
1037 65 3 1.008 0.03 1.93051 16.0094 6.68189 198.66 -33.173 -42.5005 4 -1 -1 -0.0186036 -0.00183703 0.0089573 -0.623194 -18.3844 7.60674 
1029 65 2 12.01 0.11 1.91992 14.9435 7.02767 198.649 -34.2388 -42.1547 4 -1 -1 -0.000565327 -0.00274801 0.00260992 -52.4088 18.9669 -24.7912 
1032 65 3 1.008 0.03 4.2989 13.5653 6.12315 201.028 -35.617 -43.0592 4 -1 -1 0.0292745 -0.00437248 -0.028082 -10.8034 20.7818 2.34972 
6685 418 3 1.008 0.03 7.36205 15.5729 5.44081 105.727 -82.7918 54.6232 2 -2 1 -0.00680164 0.0213833 0.0188987 -12.9886 -0.921718 5.87604 
381 24 3 1.008 0.03 4.71085 11.5538 7.15355 152.258 -37.6285 7.15355 3 -1 0 0.00892279 -0.0154082 0.00179085 0.0480093 14.5437 0.772841 
6673 418 1 16 -0.4 7.31505 14.1212 7.03745 105.68 -84.2435 56.2198 2 -2 1 0.00774937 0.00138749 0.00156364 -5.87914 -1.34268 7.56826 
5120 320 3 1.008 0.03 2.80142 12.114 0.466622 101.166 61.2963 98.8313 2 1 2 -0.00339864 -0.00673486 0.00428588 -2.75258 10.1593 -3.96337 
5319 333 3 1.008 0.03 11.2198 15.824 0.91464 60.4022 114.189 99.2793 1 2 2 0.00151922 0.00979579 0.0146852 -8.33032 28.2898 8.94872 
1642 103 3 1.008 0.03 16.0538 12.1913 7.19955 -131.493 12.1913 56.3819 -3 0 1 0.00693784 0.00359304 0.0225999 -6.02199 -10.3976 2.57582 
5327 333 3 1.008 0.03 11.0299 11.9332 0.661604 60.2122 110.298 99.0263 1 2 2 -0.0101345 0.000844943 -0.0145501 7.06932 -1.84777 -5.17912 
1636 103 2 12.01 0.14 16.3802 13.1948 6.99349 -131.167 13.1948 56.1758 -3 0 1 -0.00419787 -0.00169238 -0.000194551 -2.94551 12.1635 -37.9722 
5315 333 2 12.01 0.14 11.0075 14.7927 0.9229 60.1898 113.157 99.2876 1 2 2 0.00206252 -0.00387294 0.000347304 -30.3625 -4.25823 -7.10798 
8124 508 3 1.008 0.03 12.5172 12.5825 6.48107 110.882 12.5825 154.028 2 0 3 0.0101586 0.0160701 0.0159542 0.522119 -1.60224 -1.06797 
378 24 3 1.008 0.03 9.17039 11.5265 6.15737 156.717 -37.6558 6.15737 3 -1 0 0.0125517 -0.00293355 0.00856572 17.4102 -12.6764 -5.86823 
370 24 1 16 -0.4 8.72212 10.4323 4.37486 156.269 -38.75 4.37486 3 -1 0 0.00229089 0.00190724 0.00349577 10.1277 -33.4138 -20.4856 
5317 333 2 12.01 0.11 9.30184 14.6935 2.56041 58.4842 113.058 100.925 1 2 2 -0.00167224 -0.00579837 0.00413453 -76.5458 0.0811509 -20.0695 
5325 333 3 1.008 0.03 10.064 14.6143 3.25255 59.2463 112.979 101.617 1 2 2 -0.00871273 0.0176334 0.00215204 29.7777 -7.22796 25.798 
6684 418 3 1.008 0.03 8.68408 14.4275 5.47897 107.049 -83.9372 54.6613 2 -2 1 0.00546896 -0.0116626 -0.0063753 -20.3694 5.819 14.8317 
2983 187 3 1.008 0.03 16.6518 13.0101 2.45231 65.8342 13.0101 100.817 1 0 2 0.00362403 0.0148869 0.0174803 18.237 6.68502 -10.6884 
382 24 3 1.008 0.03 10.5155 11.2786 3.69263 158.063 -37.9037 3.69263 3 -1 0 -0.0197165 0.0081226 -0.0127169 9.18446 7.24294 9.43499 
374 24 2 12.01 0.11 9.56347 10.9403 3.33827 157.111 -38.2421 3.33827 3 -1 0 -0.00237972 -0.00316984 -0.00476544 -27.2341 25.6361 -14.648 
383 24 3 1.008 0.03 9.80419 10.2241 2.5457 157.351 -38.9583 2.5457 3 -1 0 0.0197837 0.00923398 -0.00421807 -7.12355 -2.98526 5.72183 
384 24 3 1.008 0.03 9.00939 11.7952 2.84371 156.556 -37.3872 2.84371 3 -1 0 0.021848 -0.0110717 0.030087 18.0957 -20.6211 11.4005 
5313 333 1 16 -0.4 9.61966 14.4562 1.22067 58.802 112.821 99.5854 1 2 2 -0.000974613 -0.00385201 -0.00720752 34.9209 -6.3652 -13.6734 
1641 103 3 1.008 0.03 15.988 13.5014 6.00093 -131.559 13.5014 55.1833 -3 0 1 -0.0156727 -0.00696666 -0.0329783 9.06596 -12.3081 7.82573 
2986 187 3 1.008 0.03 16.0471 10.1634 2.31176 65.2294 10.1634 100.676 1 0 2 0.0158414 0.0362314 -0.0277597 -0.757192 -13.1274 -7.27692 
2991 187 3 1.008 0.03 14.5267 9.32991 4.03112 63.709 9.32991 102.396 1 0 2 0.0156705 -0.0109509 -0.0242347 4.26726 -9.12764 -5.22062 
2982 187 2 12.01 0.11 14.1749 10.3453 3.9681 63.3572 10.3453 102.333 1 0 2 0.00520231 -0.00461915 0.00183513 27.2294 38.891 30.3956 
2978 187 1 16 -0.4 15.2319 11.32 3.74759 64.4143 11.32 102.112 1 0 2 -0.00277324 -0.00381298 0.0012404 -13.5402 -13.7567 -16.4797 
2980 187 2 12.01 0.14 15.7156 11.1802 2.40298 64.898 11.1802 100.768 1 0 2 -0.0100358 -0.015523 0.000892378 48.5779 14.7313 -8.00794 
2992 187 3 1.008 0.03 13.798 10.6012 4.9734 62.9803 10.6012 103.338 1 0 2 -0.0151543 0.00571088 -0.0165259 -4.82647 -5.08974 -10.3276 
2990 187 3 1.008 0.03 13.4123 10.4656 3.22951 62.5947 10.4656 101.594 1 0 2 0.0272422 0.00435056 0.00920194 -14.9875 -2.58603 -7.40635 
7691 481 3 1.008 0.03 13.4637 15.8941 5.58139 13.4637 163.441 5.58139 0 3 0 0.0039588 0.00391565 0.00146051 14.9812 -5.94537 -3.64284 
5320 333 3 1.008 0.03 11.6385 14.4266 1.68709 60.8209 112.791 100.052 1 2 2 -0.00236362 -0.0148943 0.0214008 19.7928 -15.1979 9.20449 
7692 481 3 1.008 0.03 13.7437 16.5559 4.02023 13.7437 164.103 4.02023 0 3 0 -0.0065021 -0.00656901 -0.0142316 10.4656 4.32206 6.19749 
7693 481 3 1.008 0.03 15.1422 15.7954 4.78118 15.1422 163.342 4.78118 0 3 0 0.00178972 0.00271177 0.00482839 -6.28821 0.0470018 8.97105 
7685 481 2 12.01 0.11 14.2478 16.402 4.99027 14.2478 163.949 4.99027 0 3 0 -0.0020678 -0.00530936 -0.000668033 -12.2972 16.8882 2.45831 
2985 187 3 1.008 0.03 14.9559 11.3457 1.69147 64.1383 11.3457 100.056 1 0 2 0.00199606 0.0189536 -0.0184458 -23.0374 1.74688 -12.7322 
5323 333 3 1.008 0.03 8.93915 15.7219 2.53219 58.1215 114.087 100.897 1 2 2 -0.01538 -0.0147273 0.00400429 2.38996 1.03365 9.59971 
7688 481 3 1.008 0.03 15.2739 16.6378 7.25264 15.2739 164.185 7.25264 0 3 0 0.014102 0.000591282 0.01371 0.854974 -4.22091 7.50311 
2923 183 3 1.008 0.03 24.2992 10.296 0.822274 73.4815 -38.8864 99.187 1 -1 2 -0.0078884 -0.0246541 -0.0180364 7.63148 -2.17006 1.60558 
4220 264 3 1.008 0.03 17.2373 15.8557 1.08319 17.2373 -82.509 -48.0992 0 -2 -1 0.0020188 -0.00149588 0.0187948 0.0067618 -2.53942 1.21573 
1635 103 2 12.01 0.14 17.8835 13.3053 7.03338 -129.664 13.3053 56.2157 -3 0 1 -0.0042779 0.00569843 0.00111725 51.6913 15.8797 -20.3422 
4024 252 3 1.008 0.03 19.709 9.08926 2.16566 19.709 58.2716 51.348 0 1 1 0.02614 0.000383053 0.031805 5.39211 4.9325 5.48814 
8494 531 3 1.008 0.03 22.157 8.95282 5.91283 22.157 58.1352 5.91283 0 1 0 -0.0122018 -0.00281511 -0.018937 -0.94402 21.7032 -6.72023 
4017 252 1 16 -0.4 21.3785 8.88944 3.47123 21.3785 58.0718 52.6536 0 1 1 0.000440222 -0.00294828 -0.00135363 14.1201 11.0704 -17.3793 
1643 103 3 1.008 0.03 20.2179 15.2531 5.78696 -127.329 15.2531 54.9693 -3 0 1 0.0115465 0.0166031 0.0129136 10.52 6.94534 0.863329 
2988 187 3 1.008 0.03 17.5602 10.779 4.2648 66.7426 10.779 102.629 1 0 2 -0.0257064 -0.00036639 -0.00799276 -12.3555 -5.64347 16.3566 
2979 187 2 12.01 0.14 16.9586 12.092 1.93423 66.141 12.092 100.299 1 0 2 7.56153e-05 -0.00706089 0.00757703 -65.5687 -19.9891 -8.30095 
2984 187 3 1.008 0.03 16.9333 12.2579 0.776262 66.1157 12.2579 99.141 1 0 2 -0.00956255 0.0152797 -0.00282921 8.38652 -10.9497 53.88 
1639 103 3 1.008 0.03 18.3121 12.4359 6.5213 -129.235 12.4359 55.7036 -3 0 1 -0.0203337 0.0337709 0.034847 -6.39616 -3.31782 9.40177 
1645 103 3 1.008 0.03 20.3428 13.5048 5.89107 -127.204 13.5048 55.0734 -3 0 1 0.0151013 -0.00422002 0.00894383 -0.257841 3.8238 6.03862 
4021 252 2 12.01 0.11 22.1581 9.53931 2.45657 22.1581 58.7217 51.6389 0 1 1 0.00217894 0.00356706 0.00284898 33.1887 -20.5594 14.5304 
4027 252 3 1.008 0.03 22.3189 8.90864 1.54887 22.3189 58.091 50.7312 0 1 1 0.00187655 0.00139602 -0.0179486 -1.12045 9.53941 17.0481 
2868 180 2 12.01 0.14 21.8096 15.437 0.772182 21.8096 113.802 -48.4102 0 2 -1 -0.00451582 -0.00511054 0.00746784 -15.1831 11.0084 53.1021 
2987 187 3 1.008 0.03 17.9433 12.6045 4.11176 67.1257 12.6045 102.476 1 0 2 0.00247585 0.0051432 -0.0118525 9.4039 -38.0406 6.96397 
8795 550 3 1.008 0.03 22.8549 11.3101 5.97692 -75.5098 208.04 55.1593 -2 4 1 -0.021463 -0.00292499 -0.0250155 -13.0791 -4.82323 -3.59426 
8789 550 2 12.01 0.11 23.3138 12.0404 6.61878 -75.0509 208.77 55.8011 -2 4 1 0.000108203 0.00221128 0.000772186 53.2418 -25.792 -18.8669 
4029 252 3 1.008 0.03 23.1458 9.79011 2.91557 23.1458 58.9725 52.0979 0 1 1 0.0167722 0.00765838 0.0167481 -14.2387 -10.3875 -9.42806 
2989 187 3 1.008 0.03 19.1509 11.2999 4.19371 68.3332 11.2999 102.558 1 0 2 0.0111203 -0.0101899 0.0172997 44.2009 -7.84907 13.4263 
2977 187 1 16 -0.4 18.112 11.4217 2.42974 67.2943 11.4217 100.794 1 0 2 0.00304387 -0.00210927 -0.00221428 13.9057 11.7853 8.29117 
4028 252 3 1.008 0.03 21.8143 10.5012 2.16684 21.8143 59.6835 51.3492 0 1 1 -0.0048262 0.0105899 -0.00189602 -16.8124 13.1603 -5.93248 
2865 180 1 16 -0.4 24.0046 16.0365 1.28546 24.0046 114.401 -47.8969 0 2 -1 -0.00114982 0.00509932 0.000716146 4.38017 -18.7765 -4.68825 
8791 550 3 1.008 0.03 22.7899 12.6418 4.33174 -75.5748 209.371 53.5141 -2 4 1 -0.00175774 0.0340493 -0.00459647 0.807175 2.35545 -4.0198 
2867 180 2 12.01 0.14 22.7355 16.6278 1.12171 22.7355 114.992 -48.0606 0 2 -1 0.000333112 0.00611948 0.00108171 -10.6249 -23.5003 -17.5616 
8787 550 2 12.01 0.14 23.255 13.4775 4.85905 -75.1097 210.207 54.0414 -2 4 1 -0.000823557 0.00124998 0.00458257 -17.5022 27.9057 -16.1401 
2866 180 1 16 -0.4 21.6645 14.7324 2.05277 21.6645 113.097 -47.1296 0 2 -1 0.00574305 0.00762779 0.00373436 0.0867164 -7.81185 -24.3399 