ITEM: TIMESTEP
3950000
ITEM: NUMBER OF ATOMS
10479
ITEM: BOX BOUNDS pp pp pp
4.0882558190751794e-01 4.9591174418091420e+01
4.0882558190751794e-01 4.9591174418091420e+01
4.0882558190751794e-01 4.9591174418091420e+01
ITEM: ATOMS id mol type mass q x y z xu yu zu ix iy iz vx vy vz fx fy fz 
2875 180 3 1.008 0.03 5.65892 3.72112 2.21065 5.65892 102.086 -46.9717 0 2 -1 0.00906018 0.0321971 0.0203618 -4.22483 18.1238 -11.2378 
8160 510 3 1.008 0.03 2.71902 3.60577 3.65439 2.71902 52.7881 3.65439 0 1 0 0.0199718 -0.00540918 -0.0126575 12.8437 1.96707 2.1215 
2867 180 2 12.01 0.14 7.61687 3.05619 0.81787 7.61687 101.421 -48.3645 0 2 -1 -0.00474026 -0.00609972 -0.00124745 3.8895 14.7631 -42.0574 
2869 180 2 12.01 0.11 5.90209 4.56191 1.51258 5.90209 102.927 -47.6698 0 2 -1 -9.8082e-05 -0.000711233 -0.00320236 13.2788 12.8508 12.1294 
2865 180 1 16 -0.4 7.29005 4.43471 1.07011 7.29005 102.799 -48.1122 0 2 -1 0.00388878 0.0045577 -0.000315039 -7.75087 -9.55261 16.2766 
2877 180 3 1.008 0.03 5.1476 4.63425 0.691394 5.1476 102.999 -48.491 0 2 -1 -0.0107805 0.0238003 -0.00342658 15.4753 -6.49151 10.9253 
5927 371 3 1.008 0.03 5.25955 5.30262 4.32831 5.25955 103.667 102.693 0 2 2 -0.000915882 -0.0100635 -0.0106304 4.60168 -5.33584 -47.8225 
5933 371 3 1.008 0.03 7.55536 5.814 4.02845 7.55536 104.179 102.393 0 2 2 -0.0104907 0.00239351 -0.00585226 7.72584 -3.33901 -3.0371 
8159 510 3 1.008 0.03 1.27684 2.75056 3.62943 1.27684 51.9329 3.62943 0 1 0 0.00232744 0.0033377 0.0239802 -9.70061 -3.99022 -8.46261 
8150 510 2 12.01 0.11 1.6595 3.76083 3.59943 1.6595 52.9432 3.59943 0 1 0 -0.00651257 0.00626381 0.00678607 -0.0352639 -3.53344 45.2998 
5931 371 3 1.008 0.03 6.87876 7.35939 4.2683 6.87876 105.724 102.633 0 2 2 -0.01815 -0.00311131 -0.00834006 -14.5267 18.3576 -7.59913 
2876 180 3 1.008 0.03 5.82727 5.51426 2.11278 5.82727 103.879 -47.0696 0 2 -1 0.0174674 0.0142059 -0.0165751 0.260318 -21.5332 -15.8888 
5922 371 1 16 -0.4 3.01394 6.4728 5.12128 3.01394 104.837 103.486 0 2 2 0.00605326 -0.00565736 -0.00327262 23.3148 -28.1951 -14.204 
8475 530 3 1.008 0.03 4.56108 7.87616 2.6469 102.926 253.788 2.6469 2 5 0 0.00990449 -0.00711067 0.017492 -4.34916 -1.30257 8.42584 
8152 510 3 1.008 0.03 0.551069 6.2771 0.870989 0.551069 55.4594 0.870989 0 1 0 -0.000876802 -0.00759085 -0.0162521 -13.7855 9.38054 -2.74946 
8465 530 1 16 -0.4 3.5733 8.44535 0.981612 101.938 254.357 0.981612 2 5 0 0.00180839 0.0019208 -0.00670764 -10.3123 -10.4972 -19.3195 
2175 136 3 1.008 0.03 6.89772 2.90189 5.22876 105.262 2.90189 54.4111 2 0 1 0.00456375 -0.00267516 0.0189036 -0.860127 17.6089 -10.7433 
2871 180 3 1.008 0.03 7.12937 2.41197 1.5257 7.12937 100.777 -47.6566 0 2 -1 -0.0127897 0.00809594 -0.00388856 -2.99543 -12.272 4.13254 
5934 371 3 1.008 0.03 2.4062 8.39736 5.19559 2.4062 106.762 103.56 0 2 2 0.0120371 -0.0071827 -0.00254221 3.78649 5.61252 7.93795 
5935 371 3 1.008 0.03 1.18934 7.23544 5.17588 1.18934 105.6 103.541 0 2 2 0.00960954 0.0332233 -0.00551326 -16.7562 -5.6935 -3.17983 
5926 371 2 12.01 0.11 2.147 7.42376 5.59875 2.147 105.788 103.963 0 2 2 0.000879396 0.000617607 -0.00176259 -10.3127 17.4574 12.9802 
2161 136 1 16 -0.4 4.67832 1.00354 1.64327 103.043 1.00354 50.8256 2 0 1 -0.00618595 0.00333806 -0.00186581 3.63895 -19.943 12.8017 
7568 473 3 1.008 0.03 8.30939 8.10026 2.45567 8.30939 155.647 100.82 0 3 2 0.00310134 0.000991906 0.0252169 7.90245 10.4258 0.673554 
2176 136 3 1.008 0.03 5.97969 1.82079 6.02972 104.344 1.82079 55.2121 2 0 1 0.0225791 -0.0152438 0.00898813 -33.9986 -9.97602 41.8303 
8476 530 3 1.008 0.03 2.71996 8.11617 2.815 101.085 254.028 2.815 2 5 0 -0.00578571 0.00523089 0.00140598 3.52527 14.2499 10.8315 
5928 371 3 1.008 0.03 4.96618 4.50949 5.78763 4.96618 102.874 104.152 0 2 2 0.0195121 0.00153566 0.0285339 17.3906 28.9491 -4.96142 
2162 136 1 16 -0.4 5.64632 1.67094 3.99261 104.011 1.67094 53.175 2 0 1 -0.00248694 0.00710758 0.00172592 -4.83899 -23.8119 14.928 
2166 136 2 12.01 0.11 6.4691 1.92657 5.15169 104.834 1.92657 54.334 2 0 1 0.00305121 -0.00856987 -0.0102101 33.2011 -16.8149 -38.0566 
5929 371 3 1.008 0.03 4.14993 6.47491 6.78453 4.14993 104.84 105.149 0 2 2 0.00038382 -0.00543197 0.00272916 6.53625 7.44726 -16.3139 
8477 530 3 1.008 0.03 3.3149 6.68992 2.06722 101.68 252.602 2.06722 2 5 0 0.0234198 -0.0145552 0.0236428 12.685 40.5094 8.16256 
7211 451 3 1.008 0.03 2.14365 1.44965 7.07143 2.14365 -96.915 -91.2933 0 -2 -2 -0.0273084 -0.00534603 0.000600662 7.31688 -10.653 -7.63749 
8469 530 2 12.01 0.11 3.56258 7.80847 2.21631 101.927 253.72 2.21631 2 5 0 -0.00670789 -0.00189957 -0.00448907 -12.6614 -68.1108 -13.7523 
2167 136 3 1.008 0.03 3.19146 0.78609 3.1346 101.556 0.78609 52.3169 2 0 1 0.0127673 -0.0355394 0.010186 -1.55387 -0.959514 3.76114 
5925 371 2 12.01 0.11 7.33958 6.56063 4.78204 7.33958 104.925 103.147 0 2 2 0.0103391 0.00243973 -0.00611258 8.06298 -10.391 -6.03058 
8146 510 1 16 -0.4 1.43124 4.48958 2.44151 1.43124 53.6719 2.44151 0 1 0 0.00689733 -0.00270525 0.000492814 -0.0553213 4.80315 -5.35579 
2173 136 3 1.008 0.03 3.16574 2.18958 1.1957 101.53 2.18958 50.378 2 0 1 -0.00885722 -0.0220917 0.0244307 -0.0662069 -7.23438 -17.3273 
7208 451 3 1.008 0.03 1.4217 3.86506 7.38009 1.4217 -94.4996 -90.9846 0 -2 -2 0.0154261 -0.0238208 -0.0183434 3.40785 -1.84672 3.31606 
5924 371 2 12.01 0.14 4.31036 6.59923 5.68512 4.31036 104.964 104.05 0 2 2 -0.00355551 -0.000768455 -0.00315736 -14.0829 1.99492 36.793 
2174 136 3 1.008 0.03 7.35144 1.27433 5.23443 105.716 1.27433 54.4168 2 0 1 0.00629117 0.00519571 0.00588129 -8.67676 -1.35774 -7.53718 
5930 371 3 1.008 0.03 4.66893 7.62859 5.53132 4.66893 105.993 103.896 0 2 2 -0.0295254 0.0189609 -0.00174695 4.8415 -11.0144 -1.04612 
8158 510 3 1.008 0.03 1.36833 4.25024 4.56909 1.36833 53.4326 4.56909 0 1 0 -0.0102998 0.0120838 0.0165364 2.68859 -3.6568 -24.9679 
5923 371 2 12.01 0.14 5.31413 5.49092 5.32883 5.31413 103.856 103.694 0 2 2 -0.00454008 0.000329632 -0.00550467 -51.0157 -13.9056 33.2179 
5921 371 1 16 -0.4 6.52768 5.97971 5.76216 6.52768 104.344 104.127 0 2 2 0.00128585 -0.00787898 -0.00958445 22.7997 -4.56011 23.4742 
5932 371 3 1.008 0.03 8.25862 6.95692 5.20055 8.25862 105.322 103.565 0 2 2 -0.0186074 -0.00141072 -0.019804 3.69661 -2.84198 2.76856 
5936 371 3 1.008 0.03 2.05813 7.40847 6.70114 2.05813 105.773 105.066 0 2 2 -0.00211676 -0.00109891 0.00711364 0.962609 4.13485 -9.97608 
2165 136 2 12.01 0.11 3.80339 1.46419 0.647574 102.168 1.46419 49.8299 2 0 1 0.00708202 -0.00294202 0.00391636 14.1597 25.8492 -19.7489 
1494 94 2 12.01 0.11 14.2928 0.526577 4.31815 112.658 98.8913 53.5005 2 2 1 -0.00806702 -0.000743884 -0.002878 21.4046 43.0834 5.88591 
1192 75 3 1.008 0.03 10.8286 1.47018 6.58244 10.8286 1.47018 6.58244 0 0 0 -0.0130036 -0.0164591 0.013398 -1.74722 -4.36589 -0.533482 
4281 268 3 1.008 0.03 10.1653 5.14778 3.92433 157.712 -44.0346 -45.258 3 -1 -1 0.0382777 0.0108524 0.0136277 3.30691 12.1888 10.4038 
2873 180 3 1.008 0.03 9.58879 2.48668 1.60126 9.58879 100.851 -47.5811 0 2 -1 0.0109693 0.0254083 -0.0162165 -15.0289 -1.30085 -44.3916 
1504 94 3 1.008 0.03 15.0523 1.1411 4.9274 113.417 99.5058 54.1098 2 2 1 0.0150386 -0.0176285 -0.00906212 -25.7256 -30.5238 -24.6655 
1189 75 2 12.01 0.11 10.7073 1.95957 4.15638 10.7073 1.95957 4.15638 0 0 0 -0.000600162 0.00536114 -0.00270942 -12.1583 28.8596 -0.0701426 
1498 94 3 1.008 0.03 13.4948 2.1152 2.54249 111.859 100.48 51.7248 2 2 1 -0.00854153 -0.0173565 0.00402888 16.7831 2.41822 -17.2148 
1497 94 3 1.008 0.03 15.1781 2.55778 2.75161 113.543 100.922 51.934 2 2 1 0.00780656 0.00439232 0.0195702 5.6525 -2.96644 9.81146 
4273 268 1 16 -0.4 12.0977 6.34604 1.59019 159.645 -42.8363 -47.5922 3 -1 -1 -0.000812581 -0.00474824 0.00577879 22.6198 16.2888 18.8657 
7197 450 3 1.008 0.03 14.9382 5.92981 4.38222 14.9382 55.1122 151.929 0 1 3 0.00487449 0.00896066 -0.00162062 2.93192 2.92719 -4.45719 
4286 268 3 1.008 0.03 12.4286 8.08814 5.07069 159.976 -41.0942 -44.1117 3 -1 -1 0.0143701 -0.00551277 -0.0338596 0.143592 -12.1649 8.84798 
7189 450 2 12.01 0.11 15.2542 5.08709 3.76553 15.2542 54.2694 151.313 0 1 3 -0.00277348 0.000341847 0.00286771 -61.6563 7.05848 -22.0664 
7196 450 3 1.008 0.03 14.2194 4.69153 3.33938 14.2194 53.8739 150.886 0 1 3 0.00401243 -0.00948092 -0.00690028 61.6855 17.0194 16.0728 
7195 450 3 1.008 0.03 15.9311 5.52678 2.99664 15.9311 54.7091 150.544 0 1 3 -0.0120813 0.0104182 -0.0123165 -12.0735 -12.4106 7.4563 
4278 268 2 12.01 0.11 11.7277 8.15486 4.25349 159.275 -41.0275 -44.9289 3 -1 -1 0.0107335 -0.00101796 0.00881466 -7.58421 40.4659 -9.96772 
4279 268 3 1.008 0.03 10.0584 6.20779 1.72232 157.605 -42.9746 -47.46 3 -1 -1 0.0281323 -0.0127908 0.00651501 2.57286 -8.83174 -1.20083 
4275 268 2 12.01 0.14 10.9559 5.75268 2.1286 158.503 -43.4297 -47.0537 3 -1 -1 0.000121944 0.00075829 0.00560939 -25.1959 5.00014 -20.6874 
4274 268 1 16 -0.4 10.6619 7.23796 4.21193 158.209 -41.9444 -44.9704 3 -1 -1 -0.00119797 0.00171983 0.00203138 -24.5723 -25.9172 -14.5264 
4276 268 2 12.01 0.14 10.8965 5.91725 3.62678 158.444 -43.2651 -45.5556 3 -1 -1 6.31702e-05 -0.00507371 0.00190846 21.1056 9.99569 27.7016 
4287 268 3 1.008 0.03 12.3229 8.1179 3.34005 159.87 -41.0644 -45.8423 3 -1 -1 -0.0150039 -0.00900966 0.0199659 -3.39405 3.64934 -0.599254 
4282 268 3 1.008 0.03 11.8681 5.68809 4.06858 159.415 -43.4943 -45.1138 3 -1 -1 -0.00332334 -0.0121959 0.0120015 -1.83396 -15.7855 -4.8955 
4280 268 3 1.008 0.03 10.8807 4.70111 1.83379 158.428 -44.4812 -47.3486 3 -1 -1 0.00885214 -0.00777094 -0.00300028 5.8792 1.55864 3.47738 
7185 450 1 16 -0.4 15.8907 4.19371 4.63757 15.8907 53.3761 152.185 0 1 3 -0.00923018 0.00103971 0.00336443 9.12911 -9.06771 -0.735402 
1491 94 2 12.01 0.14 14.8981 1.78312 0.867549 113.263 100.148 50.0499 2 2 1 -0.00583155 -0.00120235 -0.00793254 -7.82273 10.4571 -17.0568 
1492 94 2 12.01 0.14 14.543 1.80659 2.30483 112.908 100.171 51.4872 2 2 1 0.00196084 -0.00242331 0.00237546 -32.6797 14.3414 32.9737 
7187 450 2 12.01 0.14 15.0684 3.84358 5.72994 15.0684 53.0259 153.277 0 1 3 0.00487413 0.00169644 -0.00255926 -43.903 -33.8526 12.1168 
7192 450 3 1.008 0.03 14.1408 3.25026 5.4159 14.1408 52.4326 152.963 0 1 3 0.00589249 -0.0212502 -0.0122244 30.551 24.0563 -0.703029 
1185 75 1 16 -0.4 11.3211 2.87213 5.12128 11.3211 2.87213 5.12128 0 0 0 -0.000958618 -0.00274286 0.000449261 -24.1055 -34.1953 1.52739 
7193 450 3 1.008 0.03 16.5559 2.38612 6.17118 16.5559 51.5685 153.718 0 1 3 0.00814434 -0.00374038 -0.00849293 16.4858 -19.1321 -7.38327 
1196 75 3 1.008 0.03 9.60117 2.05278 4.04004 9.60117 2.05278 4.04004 0 0 0 -0.00857949 -0.018527 0.0132737 16.958 6.92751 8.08028 
7188 450 2 12.01 0.14 15.8087 2.89851 6.70538 15.8087 52.0809 154.252 0 1 3 -0.00474027 0.00411422 0.00454499 -8.06202 47.5831 0.0210965 
1197 75 3 1.008 0.03 11.1102 2.2946 3.2075 11.1102 2.2946 3.2075 0 0 0 -0.0331178 0.00379464 -0.0206868 3.65953 -8.75275 -5.38108 
1199 75 3 1.008 0.03 10.9869 5.59586 6.12594 10.9869 5.59586 6.12594 0 0 0 0.0174378 -0.0165738 0.0039513 -6.8633 -15.5275 -6.48982 
1195 75 3 1.008 0.03 10.8476 0.887488 4.30341 10.8476 0.887488 4.30341 0 0 0 0.013984 0.000255828 -0.00205192 11.9228 2.0536 2.36578 
1490 94 1 16 -0.4 14.6797 0.550182 2.90206 113.044 98.9149 52.0844 2 2 1 -0.00105463 -0.000829615 -0.00258126 -0.375226 -24.964 33.3317 
1187 75 2 12.01 0.14 10.7547 2.53739 6.39552 10.7547 2.53739 6.39552 0 0 0 0.00428091 0.0104028 0.00880491 -42.5325 30.8859 2.18911 
1495 94 3 1.008 0.03 15.7889 1.22243 0.726447 114.154 99.5871 49.9088 2 2 1 -0.00290843 0.0147107 0.02491 16.4465 -8.78994 -2.46778 
1502 94 3 1.008 0.03 13.341 1.05866 4.48909 111.706 99.4234 53.6714 2 2 1 0.00322983 0.0122943 -0.0381589 6.97955 -6.70933 -5.0687 
1190 75 2 12.01 0.11 11.1688 5.56888 7.17891 11.1688 5.56888 7.17891 0 0 0 -0.00754375 -0.00164708 -0.00645662 6.26672 17.0794 20.3344 
7154 448 1 16 -0.4 15.9651 8.50317 4.01469 15.9651 -89.8615 53.197 0 -2 1 -0.00805824 -0.000631679 -0.00108404 -26.0967 -11.505 23.0405 
7167 448 3 1.008 0.03 14.9807 7.89878 5.59332 14.9807 -90.4659 54.7757 0 -2 1 0.0178047 -0.000422541 -0.0193626 -21.205 -32.7795 14.995 
1194 75 3 1.008 0.03 12.4526 3.45826 7.23601 12.4526 3.45826 7.23601 0 0 0 -0.0205292 0.00670569 0.00032277 -20.4434 -0.0267049 13.7086 
1191 75 3 1.008 0.03 9.66386 2.867 6.4226 9.66386 2.867 6.4226 0 0 0 -0.0131943 -0.0408919 0.00971644 28.8795 -18.2578 -5.25148 
2868 180 2 12.01 0.14 9.07968 2.56964 0.568857 9.07968 100.934 -48.6135 0 2 -1 -0.00306147 0.00480662 -0.00550646 -4.78216 -0.6802 34.3978 
7191 450 3 1.008 0.03 14.6657 4.70875 6.27492 14.6657 53.8911 153.822 0 1 3 -0.0265717 0.0141589 -0.0082793 5.56842 -1.92468 -3.18301 
7186 450 1 16 -0.4 14.9048 2.09159 7.38 14.9048 51.2739 154.927 0 1 3 -0.00126019 0.00100826 -0.000616034 -24.415 -8.92626 1.81536 
7566 473 3 1.008 0.03 9.53518 8.03109 1.22619 9.53518 155.578 99.5909 0 3 2 0.00740324 0.0100288 0.0198408 16.8685 -14.5474 -12.7924 
1198 75 3 1.008 0.03 12.218 5.80102 7.33115 12.218 5.80102 7.33115 0 0 0 -0.00510699 -0.0119562 -0.0145135 4.90864 -4.45142 -0.666034 
1496 94 3 1.008 0.03 15.1138 2.83313 0.617813 113.478 101.198 49.8002 2 2 1 0.0423298 -0.00370754 -0.0591156 -5.12449 -8.56369 -12.2224 
823 52 3 1.008 0.03 17.5505 1.66638 3.58024 17.5505 100.031 -45.6021 0 2 -1 -0.00653909 -0.00710765 -0.0215454 -6.35927 12.4775 -4.01841 
819 52 2 12.01 0.14 18.1808 0.944084 4.05198 18.1808 99.3088 -45.1304 0 2 -1 -0.000989226 0.00130593 -0.00214222 2.83565 -11.0034 -26.2273 
7153 448 1 16 -0.4 17.9389 7.96721 2.02584 17.9389 -90.3975 51.2082 0 -2 1 0.000658817 -0.00161381 0.00220999 -4.006 5.38501 18.0932 
820 52 2 12.01 0.14 19.1904 1.54968 4.9462 19.1904 99.9144 -44.2361 0 2 -1 0.00493803 -0.00225656 -0.00283436 55.1806 23.4675 -24.5036 
425 27 3 1.008 0.03 17.7993 2.39307 1.35 17.7993 51.5754 50.5324 0 1 1 0.0217369 -0.00575381 -0.0041542 0.969073 -12.435 4.09711 
826 52 3 1.008 0.03 18.7163 2.10427 5.67055 18.7163 100.469 -43.5118 0 2 -1 0.0207178 -0.00626404 -0.0205012 -19.5118 19.8549 31.6096 
426 27 3 1.008 0.03 19.4879 1.59617 1.06768 19.4879 50.7785 50.25 0 1 1 0.00753738 -0.00890128 -0.00230501 -30.8618 27.126 3.89393 
420 27 2 12.01 0.14 18.7989 2.50479 0.937425 18.7989 51.6871 50.1198 0 1 1 0.00178356 -0.000434107 0.00526447 27.1834 -30.8292 22.7714 
430 27 3 1.008 0.03 19.2481 5.03927 2.95441 19.2481 54.2216 52.1368 0 1 1 -0.00656596 -0.00433435 -0.0222203 -5.77995 16.043 4.28403 
10291 647 6 16 -0.53 24.8167 1.81045 3.22173 24.8167 50.9928 3.22173 0 1 0 0.000572858 -0.0024181 0.00456213 -10.838 -13.3799 7.59008 
5581 349 3 1.008 0.03 18.1288 4.6322 6.44692 18.1288 4.6322 6.44692 0 0 0 -0.0146065 0.00479359 0.0400465 -2.70424 -7.69613 -3.58168 
10296 647 8 19 -0.16 22.4318 2.18614 4.84291 22.4318 51.3685 4.84291 0 1 0 -0.00228634 -6.29071e-05 0.00420826 20.4586 9.80224 -1.23469 
4949 310 2 12.01 0.11 23.0497 7.86343 4.85694 72.232 7.86343 4.85694 1 0 0 0.00421956 0.00254987 0.00130743 -68.1967 -24.9245 73.7636 
10290 647 5 32.06 1.02 24.6217 3.17395 3.69373 24.6217 52.3563 3.69373 0 1 0 0.00516057 0.00341959 -0.0036509 26.2256 -19.7026 -23.4456 
4955 310 3 1.008 0.03 22.0735 8.39703 5.14068 71.2558 8.39703 5.14068 1 0 0 -0.00664425 -0.0239287 0.0396369 34.5787 -14.3328 -10.4793 
4956 310 3 1.008 0.03 22.8506 6.80266 5.20605 72.0329 6.80266 5.20605 1 0 0 0.0176315 0.000205705 0.00213378 11.8122 24.3499 -11.1351 
10293 647 7 12.01 0.35 22.9271 3.2695 4.22826 22.9271 52.4519 4.22826 0 1 0 0.00332922 0.0012398 -0.00573916 -19.4354 28.2367 65.0014 
10294 647 8 19 -0.16 22.8034 4.33945 5.08656 22.8034 53.5218 5.08656 0 1 0 0.000988435 0.00386815 -0.00761275 -5.66422 -38.3639 -28.7979 
418 27 1 16 -0.4 19.4079 3.61283 1.58328 19.4079 52.7952 50.7656 0 1 1 -0.0053255 0.000959481 -0.000590686 -9.25144 11.6819 14.7417 
422 27 2 12.01 0.11 18.5338 4.42922 2.42307 18.5338 53.6116 51.6054 0 1 1 0.00188306 -0.00307648 0.011612 4.27287 -14.0082 -62.4392 
432 27 3 1.008 0.03 17.9725 3.83861 3.13428 17.9725 53.021 52.3166 0 1 1 -0.00974433 0.0129868 0.017358 -2.92423 -1.3822 3.03918 
10295 647 8 19 -0.16 22.1236 3.46942 3.24722 22.1236 52.6518 3.24722 0 1 0 -0.00158703 -0.00204024 -0.00523143 -19.1741 10.2757 -28.2553 
10292 647 6 16 -0.53 24.6821 4.20614 2.6939 24.6821 53.3885 2.6939 0 1 0 -0.00214565 -0.00104268 0.00458384 3.87555 2.65375 6.46666 
4951 310 3 1.008 0.03 22.4363 6.22679 3.10708 71.6187 6.22679 3.10708 1 0 0 -0.00916922 0.0107614 -0.00837034 -9.62967 12.1502 -11.4508 
4947 310 2 12.01 0.14 22.2756 7.30546 2.86966 71.4579 7.30546 2.86966 1 0 0 -0.00685201 -0.00413666 -0.00715889 -29.793 -31.0465 -9.64879 
4945 310 1 16 -0.4 23.318 7.9707 3.52093 72.5003 7.9707 3.52093 1 0 0 0.00246611 -0.00169732 -0.00109165 6.95008 11.8172 -40.8525 
431 27 3 1.008 0.03 17.8399 4.96834 1.68225 17.8399 54.1507 50.8646 0 1 1 0.00804716 -0.000622415 -0.00269278 22.2894 -10.8156 34.3164 
4952 310 3 1.008 0.03 21.3149 7.60163 3.33573 70.4972 7.60163 3.33573 1 0 0 0.020023 0.00158493 -0.00801991 3.65193 -4.7543 -11.479 
4948 310 2 12.01 0.14 22.1575 7.54304 1.32951 71.3398 7.54304 1.32951 1 0 0 0.0017895 0.0094772 0.00115096 43.5875 2.65735 19.255 
5569 349 1 16 -0.4 20.1243 4.77902 6.79487 20.1243 4.77902 6.79487 0 0 0 0.00398489 -0.00592152 0.00093661 15.2876 4.78472 24.8124 
5573 349 2 12.01 0.11 18.7986 5.11691 7.13894 18.7986 5.11691 7.13894 0 0 0 0.00737239 0.00757156 0.000769362 -4.11916 8.92859 -5.46413 
825 52 3 1.008 0.03 19.7926 2.30608 4.37388 19.7926 100.671 -44.8085 0 2 -1 -0.000681687 0.00934457 0.0255977 -9.09127 -17.4476 11.2456 
4954 310 3 1.008 0.03 21.1905 7.31833 0.982221 70.3729 7.31833 0.982221 1 0 0 0.00331581 -0.0236939 -0.00372371 -25.9128 -2.94025 -7.43885 
822 52 2 12.01 0.11 20.445 0.764466 6.82256 20.445 99.1292 -42.3598 0 2 -1 -0.00534622 -0.00194219 -0.0031335 7.4245 -3.03988 25.659 
4953 310 3 1.008 0.03 22.8318 6.86081 0.799643 72.0141 6.86081 0.799643 1 0 0 0.0094051 -0.00752121 0.00695399 -1.69562 1.97368 1.42806 
4957 310 3 1.008 0.03 23.7576 8.26858 5.53861 72.9399 8.26858 5.53861 1 0 0 0.00261641 -0.0219296 0.000213044 15.2688 4.57485 4.46757 
7163 448 3 1.008 0.03 18.8508 6.68777 0.4705 18.8508 -91.6769 49.6528 0 -2 1 -0.00518103 -0.0140267 -0.00950237 1.12024 28.2708 21.0329 
818 52 1 16 -0.4 20.0502 0.568674 5.51196 20.0502 98.9334 -43.6704 0 2 -1 -0.00151199 -0.00226703 0.00119293 -18.7971 -10.9302 -22.8424 
7157 448 2 12.01 0.11 18.3665 7.68095 0.717048 18.3665 -90.6837 49.8994 0 -2 1 -0.00309469 -0.00180027 0.000291913 -17.0277 -32.1777 -26.3448 
831 52 3 1.008 0.03 21.0451 1.64939 6.90653 21.0451 100.014 -42.2758 0 2 -1 -0.00227629 -0.00927205 0.00181617 15.0853 5.0674 -1.5997 
5575 349 3 1.008 0.03 22.0003 4.86814 7.30274 22.0003 4.86814 7.30274 0 0 0 -0.0197165 -0.00843426 -0.000613855 15.295 9.42538 -5.22042 
5580 349 3 1.008 0.03 18.6548 6.18216 6.88515 18.6548 6.18216 6.88515 0 0 0 -0.0240019 0.00482672 -0.0278864 -1.36609 -5.97208 16.8293 
5004 313 3 1.008 0.03 4.79807 10.8003 3.31071 -93.5666 10.8003 3.31071 -2 0 0 0.00320267 -0.0161171 0.0177464 -3.5711 -11.0755 25.6911 
7561 473 3 1.008 0.03 6.26345 9.24161 1.69762 6.26345 156.789 100.062 0 3 2 -0.0236551 -0.00343765 0.0264243 -6.07209 -6.29538 -4.11359 
5005 313 3 1.008 0.03 5.20844 10.6815 5.1186 -93.1563 10.6815 5.1186 -2 0 0 -0.000598727 -0.0227763 0.00102605 -12.2898 -5.77118 -15.6549 
4997 313 2 12.01 0.11 4.45875 10.4338 4.32257 -93.9059 10.4338 4.32257 -2 0 0 -0.0021767 -0.00027396 0.00192476 14.0235 -40.2397 -20.6609 
5003 313 3 1.008 0.03 4.37443 9.28412 4.17925 -93.9903 9.28412 4.17925 -2 0 0 -0.0158454 -0.00120096 -0.00509878 6.39015 55.3967 15.8828 
7555 473 2 12.01 0.14 7.33753 11.106 1.7678 7.33753 158.653 100.133 0 3 2 0.00118489 -0.0053716 0.000357801 13.3474 15.1689 8.28653 
4995 313 2 12.01 0.14 3.1393 12.3493 4.81521 -95.2254 12.3493 4.81521 -2 0 0 0.0059815 0.00452818 -0.00399137 -30.1575 0.867419 -20.5949 
4993 313 1 16 -0.4 3.17477 10.9499 4.62384 -95.1899 10.9499 4.62384 -2 0 0 0.00127748 -0.00231633 0.00100549 1.73907 -6.09034 2.66088 
4996 313 2 12.01 0.14 3.74647 13.1249 3.65403 -94.6182 13.1249 3.65403 -2 0 0 -0.000295283 -0.00619996 -0.00429909 28.2878 0.642243 -12.8249 
5002 313 3 1.008 0.03 3.22398 12.8975 2.76199 -95.1407 12.8975 2.76199 -2 0 0 0.0182646 0.0102185 0.0117195 -15.6667 -6.50547 -14.9947 
5000 313 3 1.008 0.03 3.62118 12.7315 5.66238 -94.7435 12.7315 5.66238 -2 0 0 -0.0234343 -0.022517 -0.00153171 13.0706 -4.23804 31.307 
4999 313 3 1.008 0.03 2.04986 12.5911 4.93252 -96.3148 12.5911 4.93252 -2 0 0 0.00561085 0.000106695 -0.00896908 25.0861 -0.993927 -2.34849 
7556 473 2 12.01 0.14 6.88991 9.82158 1.03101 6.88991 157.369 99.3957 0 3 2 -0.00261505 -0.000552983 0.00276792 22.6712 24.9685 10.0454 
5001 313 3 1.008 0.03 4.80568 12.8911 3.33997 -93.559 12.8911 3.33997 -2 0 0 -0.00998216 0.00520711 -0.0271749 -20.4653 12.1281 18.9284 
4994 313 1 16 -0.4 3.4996 14.4793 3.89317 -94.8651 14.4793 3.89317 -2 0 0 -0.00599914 -0.00616122 -0.00296779 17.0428 34.2479 2.55766 
5008 313 3 1.008 0.03 4.23858 16.3052 4.64396 -94.1261 16.3052 4.64396 -2 0 0 0.0286703 0.00623918 -0.00562305 2.53027 -31.5127 -3.0266 
4998 313 2 12.01 0.11 4.6053 15.2525 4.45148 -93.7594 15.2525 4.45148 -2 0 0 0.00182383 0.00802899 -0.000709966 -26.2213 29.248 -16.9302 
5007 313 3 1.008 0.03 5.44809 15.4656 3.73877 -92.9166 15.4656 3.73877 -2 0 0 0.00737787 -0.0274836 0.0178899 -11.5208 -18.2855 17.2099 
5006 313 3 1.008 0.03 4.85586 14.8797 5.44218 -93.5088 14.8797 5.44218 -2 0 0 0.0105882 0.00828396 0.00199398 12.3959 -3.33784 -2.40944 
7175 449 3 1.008 0.03 6.06366 16.0651 1.15909 6.06366 65.2475 1.15909 0 1 0 0.0268826 0.0034745 -0.00219251 -8.92375 -9.61032 14.9385 
5773 361 3 1.008 0.03 0.557027 9.85592 1.1052 98.9217 59.0383 -97.2595 2 1 -2 0.0101018 0.00996819 0.00380193 -6.18987 -3.6321 -2.15396 
4417 277 1 16 -0.4 0.465186 13.2617 7.33244 98.8299 13.2617 105.697 2 0 2 0.00276833 0.00390838 0.000923112 -13.1242 34.5159 -23.1104 
4428 277 3 1.008 0.03 1.79413 14.5334 6.80612 100.159 14.5334 105.171 2 0 2 -0.00978522 -0.0322132 -0.0122427 19.4141 4.4313 -16.046 
7559 473 3 1.008 0.03 6.64443 11.9399 1.65121 6.64443 159.487 100.016 0 3 2 -0.000869913 -0.0242647 -0.00934269 -12.9704 -9.27635 11.7477 
7560 473 3 1.008 0.03 8.14401 11.606 1.21129 8.14401 159.153 99.576 0 3 2 -0.0140013 0.0067043 -0.00663134 4.45725 -14.3474 4.59427 
7564 473 3 1.008 0.03 8.20534 12.9191 3.58689 8.20534 160.466 101.952 0 3 2 -0.0179911 0.00796873 0.0135507 7.44906 -34.7679 -3.58325 
7557 473 2 12.01 0.11 8.59402 11.8493 3.67847 8.59402 159.396 102.043 0 3 2 0.0110761 0.00220962 -0.00419903 -5.72583 30.6159 6.49627 
7553 473 1 16 -0.4 7.71363 10.8302 3.16178 7.71363 158.377 101.526 0 3 2 -0.00297045 -0.00496948 0.00501387 -5.86047 23.8821 -17.7327 
7324 458 3 1.008 0.03 8.53174 16.2633 2.42023 57.7141 -32.9191 -46.7621 1 -1 -1 0.00493826 0.0147563 -0.00259545 -2.62593 9.86539 -6.9623 
7325 458 3 1.008 0.03 7.90989 16.4074 3.95636 57.0922 -32.775 -45.226 1 -1 -1 -0.00244824 -0.0104467 0.00209275 -5.74746 4.93022 11.5098 
4429 277 3 1.008 0.03 0.524054 14.373 5.51863 98.8888 14.373 103.883 2 0 2 -0.00496802 0.0193451 0.000662404 4.35752 -5.04997 -15.5858 
4421 277 2 12.01 0.11 0.759577 14.4424 6.5591 99.1243 14.4424 104.924 2 0 2 -0.00673228 0.00841272 -0.00159107 11.3182 -28.3563 30.7651 
2570 161 3 1.008 0.03 6.81917 16.0044 7.13727 -42.3632 -82.3603 7.13727 -1 -2 0 -0.00191212 -0.00234135 -0.00844488 27.6165 1.074 45.5481 
7554 473 1 16 -0.4 8.08761 9.16594 0.649384 8.08761 156.713 99.0141 0 3 2 -0.00544632 0.00158549 0.00457452 -11.6519 -9.11946 -8.45453 
7180 449 3 1.008 0.03 7.22452 14.011 0.428184 7.22452 63.1934 0.428184 0 1 0 0.0082538 0.0137784 0.024254 -4.10618 -7.91814 -18.8432 
7567 473 3 1.008 0.03 9.54988 9.48157 2.03929 9.54988 157.029 100.404 0 3 2 -0.00433136 -0.0132578 0.017861 -8.1485 -5.47563 14.2743 
5429 340 2 12.01 0.11 16.8015 13.0578 5.57744 -32.3809 13.0578 -43.6049 -1 0 -1 -0.00780215 -0.00524354 -0.00249106 11.6585 -64.1064 -31.0851 
4676 293 2 12.01 0.14 11.9659 12.2142 6.26792 -37.2164 61.3966 55.4503 -1 1 1 -0.0054921 -0.000807897 0.00215869 -10.8421 44.6935 -15.7783 
4288 268 3 1.008 0.03 11.2526 9.18243 4.37434 158.8 -39.9999 -44.808 3 -1 -1 -0.00271596 -0.0207031 -0.0241421 16.2009 -28.1233 -7.88392 
8327 521 3 1.008 0.03 14.7197 11.4815 0.707401 113.084 60.6638 49.8897 2 1 1 0.0215752 -0.015666 -0.0267552 9.27157 -10.4808 1.55304 
4681 293 3 1.008 0.03 13.0296 12.1062 6.12084 -36.1527 61.2886 55.3032 -1 1 1 -0.00363253 -0.0176974 -0.00198592 7.14069 -15.3401 4.18011 
4678 293 2 12.01 0.11 12.6661 14.5908 6.21992 -36.5163 63.7731 55.4023 -1 1 1 0.00126797 -0.00188648 -0.00263357 -1.53372 -45.6917 1.16452 
4674 293 1 16 -0.4 11.7457 13.5887 5.79292 -37.4366 62.7711 54.9753 -1 1 1 0.00345754 0.000998208 -0.000631422 -12.3172 -24.3358 8.66948 
7168 448 3 1.008 0.03 16.2785 8.86586 6.10636 16.2785 -89.4988 55.2887 0 -2 1 -0.00503454 -0.019479 0.0154164 11.8952 -2.53182 -1.26506 
7565 473 3 1.008 0.03 8.87623 11.7679 4.73891 8.87623 159.315 103.104 0 3 2 -0.0229041 0.0040609 0.012818 -10.338 -9.89752 -4.98061 
7158 448 2 12.01 0.11 15.5157 8.74285 5.35146 15.5157 -89.6218 54.5338 0 -2 1 -0.0061859 -0.0107003 0.000869464 7.75997 29.4825 -11.0451 
7166 448 3 1.008 0.03 14.8227 9.57864 5.50661 14.8227 -88.7861 54.689 0 -2 1 0.00436385 -0.0172722 0.00648055 3.31961 -0.572695 -11.5297 
7563 473 3 1.008 0.03 9.55718 11.7796 3.18221 9.55718 159.327 101.547 0 3 2 0.0163296 -0.022336 0.024524 -1.9606 1.37486 -4.79675 
8330 521 3 1.008 0.03 12.2335 10.2329 2.0869 110.598 59.4152 51.2693 2 1 1 -0.00244359 -0.0156919 0.00889953 -15.5566 -0.293294 4.27402 
8328 521 3 1.008 0.03 14.5378 11.3 2.45732 112.903 60.4824 51.6397 2 1 1 -0.013965 0.0195781 -0.00655183 13.7466 0.135398 21.216 
8332 521 3 1.008 0.03 12.5811 12.3518 3.41693 110.946 61.5342 52.5993 2 1 1 0.00993413 -0.0202494 -0.00111066 0.634188 -2.00007 0.0866455 
8321 521 1 16 -0.4 13.33 12.5794 1.43929 111.695 61.7617 50.6216 2 1 1 -0.00369109 0.00190308 0.00155983 -5.46589 18.4381 13.4333 
7160 448 3 1.008 0.03 16.1863 9.06395 1.49914 16.1863 -89.3007 50.6815 0 -2 1 0.00372864 0.022045 0.0233209 7.88142 -3.74431 7.86001 
8333 521 3 1.008 0.03 12.2547 13.8214 2.50966 110.619 63.0037 51.692 2 1 1 -0.00550676 0.00400216 0.00736455 -4.21621 1.74235 6.23004 
8323 521 2 12.01 0.14 14.0305 11.3905 1.54038 112.395 60.5728 50.7227 2 1 1 -0.00786672 0.00597223 0.00812235 -39.4537 -20.6762 -44.6676 
8325 521 2 12.01 0.11 12.3281 12.7402 2.43126 110.693 61.9225 51.6136 2 1 1 0.00824215 -0.00127515 -0.00379676 -20.797 14.9291 -14.0959 
8331 521 3 1.008 0.03 11.3106 12.3996 2.08444 109.675 61.582 51.2668 2 1 1 -0.00671544 0.015783 -0.0141192 26.3833 3.47789 8.26156 
8324 521 2 12.01 0.14 12.9849 10.2275 1.32679 111.35 59.4099 50.5091 2 1 1 -0.00475068 -0.000311052 -0.00274112 21.6241 24.3831 17.7716 
8894 556 3 1.008 0.03 14.4384 15.5299 3.00137 112.803 15.5299 -46.181 2 0 -1 0.0212908 -0.0133795 0.0150139 4.26873 7.28518 -8.25646 
4682 293 3 1.008 0.03 11.4271 11.4894 5.65006 -37.7552 60.6718 54.8324 -1 1 1 -0.00415477 -0.0112572 0.0123074 5.30147 4.01118 -4.67512 
4688 293 3 1.008 0.03 12.3592 15.4873 5.80815 -36.8232 64.6696 54.9905 -1 1 1 0.01629 0.00879007 -0.0137656 -3.03212 32.3843 -24.3724 
8895 556 3 1.008 0.03 15.7462 15.2232 1.91376 114.111 15.2232 -47.2686 2 0 -1 -0.0139791 0.0169578 -0.00312861 6.32022 -6.68728 -20.8532 
7156 448 2 12.01 0.14 16.7697 9.4898 3.51678 16.7697 -88.8749 52.6991 0 -2 1 -0.00451937 0.00438893 0.00304432 11.97 40.2368 3.69787 
7162 448 3 1.008 0.03 16.3509 10.5022 3.48933 16.3509 -87.8625 52.6717 0 -2 1 0.0251694 -0.0191523 0.00454323 -10.8609 -9.1416 5.30524 
5437 340 3 1.008 0.03 16.4408 12.0301 5.83465 -32.7416 12.0301 -43.3477 -1 0 -1 -0.00895791 0.00848384 0.000798543 6.84712 17.3617 -5.92334 
8329 521 3 1.008 0.03 13.486 9.33531 1.52468 111.851 58.5177 50.707 2 1 1 -0.00319356 0.00890644 0.00487072 18.1931 -26.5951 6.55424 
2576 161 3 1.008 0.03 9.02059 16.3141 6.3859 -40.1618 -82.0506 6.3859 -1 -2 0 -0.0056239 -0.0056575 -0.0150683 3.74724 -5.72686 26.6488 
8896 556 3 1.008 0.03 16.0026 15.5971 3.57586 114.367 15.5971 -45.6065 2 0 -1 0.0178435 -0.0155006 0.029495 9.50794 10.9618 -1.88426 
8886 556 2 12.01 0.11 15.4368 15.878 2.68801 113.802 15.878 -46.4943 2 0 -1 -0.00384509 -0.00514361 0.00558545 -19.6425 -12.128 27.6432 
7558 473 2 12.01 0.11 8.8795 8.6788 1.70948 8.8795 156.226 100.074 0 3 2 -0.00600094 -0.00403147 -0.00132735 -9.71897 14.8934 -6.3808 
4687 293 3 1.008 0.03 13.6606 14.2668 5.86928 -35.5217 63.4492 55.0516 -1 1 1 0.00843552 0.0426767 -0.0232354 -2.85503 13.4334 8.95142 
5435 340 3 1.008 0.03 16.6213 13.2136 4.50347 -32.5611 13.2136 -44.6789 -1 0 -1 -0.00423398 0.00207258 -0.0054057 -2.15538 1.85871 7.84077 
5425 340 1 16 -0.4 16.1553 13.9214 6.3551 -33.027 13.9214 -42.8272 -1 0 -1 -0.00728794 0.00592401 0.000315345 -19.9922 51.173 28.2505 
4972 311 3 1.008 0.03 11.7743 16.094 0.905244 60.9566 -33.0883 50.0876 1 -1 1 -0.00192699 -0.0249471 -0.0050744 -14.5038 -1.29533 5.24236 
4686 293 3 1.008 0.03 12.573 14.8023 7.26818 -36.6094 63.9846 56.4505 -1 1 1 -0.00807561 -0.010059 -0.00488548 9.0091 -7.92829 14.2043 
2566 161 2 12.01 0.11 9.40926 16.1341 7.43073 -39.7731 -82.2305 7.43073 -1 -2 0 0.00335873 0.00380138 0.00403064 -7.83959 11.5598 -24.4116 
1447 91 3 1.008 0.03 23.7065 13.8992 3.78924 23.7065 63.0815 52.9716 0 1 1 0.00537749 0.0069398 -0.00058802 2.39815 14.1604 3.21065 
7797 488 2 12.01 0.11 24.9851 12.1982 1.6124 74.1674 12.1982 1.6124 1 0 0 0.000417408 0.000296637 -0.00326532 -8.58987 -20.8636 17.7646 
5436 340 3 1.008 0.03 17.8609 13.0513 5.73958 -31.3215 13.0513 -43.4428 -1 0 -1 -0.00948088 0.00619348 -0.0202139 13.355 2.58258 -0.97102 
7804 488 3 1.008 0.03 24.9756 12.7956 0.743398 74.1579 12.7956 0.743398 1 0 0 -0.0229886 0.0238552 0.0130696 3.33315 10.5244 -23.1143 
7793 488 1 16 -0.4 24.9461 10.7749 1.32766 74.1285 10.7749 1.32766 1 0 0 0.00396778 -0.00410701 -0.00104925 -2.78167 17.6468 28.5359 