ITEM: TIMESTEP
50000
ITEM: NUMBER OF ATOMS
10479
ITEM: BOX BOUNDS pp pp pp
4.0882558190751794e-01 4.9591174418091420e+01
4.0882558190751794e-01 4.9591174418091420e+01
4.0882558190751794e-01 4.9591174418091420e+01
ITEM: ATOMS id mol type mass q x y z xu yu zu ix iy iz vx vy vz fx fy fz 
8388 525 2 12.01 0.14 4.42323 3.69866 2.68057 102.788 102.063 -95.6841 2 2 -2 0.000520911 -0.000242392 0.00129047 -11.3468 -0.357667 8.8279 
8386 525 1 16 -0.4 4.57788 3.79819 4.08144 102.943 102.163 -94.2833 2 2 -2 0.00203622 -0.00203336 0.00213349 0.377952 -4.04411 8.06062 
8393 525 3 1.008 0.03 3.41866 3.79099 2.31829 101.783 102.156 -96.0464 2 2 -2 0.0131653 -0.0200634 0.0110625 -15.8889 -3.94744 3.9582 
8390 525 2 12.01 0.11 3.62326 4.52769 4.84054 101.988 102.892 -93.5242 2 2 -2 0.0051995 0.00131044 -0.00619539 -2.30352 1.72358 -20.8135 
8398 525 3 1.008 0.03 3.30208 5.44882 4.3113 101.667 103.814 -94.0534 2 2 -2 0.0175043 0.0452489 -0.00466199 8.69164 -6.24833 11.1244 
8399 525 3 1.008 0.03 2.71948 3.96917 5.10142 101.084 102.334 -93.2633 2 2 -2 0.00500988 -0.012073 0.00104292 5.7121 -3.13303 -4.26356 
8400 525 3 1.008 0.03 4.18125 4.696 5.75402 102.546 103.061 -92.6107 2 2 -2 -0.0173549 -0.0114987 0.0295013 -7.12417 12.8169 6.39519 
8387 525 2 12.01 0.14 5.26952 4.66755 1.94517 103.634 103.032 -96.4195 2 2 -2 0.00380256 -0.00239555 -0.000340921 -11.1396 10.833 -4.60941 
8385 525 1 16 -0.4 4.60675 5.2555 0.825023 102.971 103.62 -97.5397 2 2 -2 -0.00121763 0.00532156 -0.00554063 7.20389 9.68758 19.1588 
8394 525 3 1.008 0.03 4.80135 2.73548 2.41385 103.166 101.1 -95.9508 2 2 -2 -0.00675539 -0.023011 0.00757808 -2.94682 -17.1701 -4.17402 
8392 525 3 1.008 0.03 5.82425 5.28714 2.61271 104.189 103.652 -95.752 2 2 -2 0.0118306 -0.0157219 -0.0094347 0.581847 20.5413 8.87484 
8391 525 3 1.008 0.03 6.05748 4.12352 1.58605 104.422 102.488 -96.7786 2 2 -2 -0.00587519 -0.021124 -0.00992295 31.835 -24.6369 -22.6471 
7356 460 3 1.008 0.03 0.517408 4.6164 6.94771 -48.6649 -93.7483 105.312 -1 -2 2 0.00193674 -0.0138111 0.00333873 11.3331 -6.88154 2.83795 
7522 471 1 16 -0.4 8.13738 6.07578 1.37511 -41.045 6.07578 1.37511 -1 0 0 0.000369336 -0.00336487 0.00303984 -10.058 -30.3422 -30.4986 
8389 525 2 12.01 0.11 4.23562 6.57309 1.19398 102.6 104.938 -97.1707 2 2 -2 0.00786778 0.00766278 -0.000892904 -45.2322 22.4459 -45.4152 
8397 525 3 1.008 0.03 4.94638 7.11333 1.74578 103.311 105.478 -96.6189 2 2 -2 -0.00475845 0.0165622 0.0197733 24.0223 11.3715 12.6628 
7359 460 3 1.008 0.03 1.19242 4.41994 0.979706 -47.9899 -93.9448 99.3444 -1 -2 2 -0.0110766 0.0163823 0.0134505 9.9806 1.74943 -3.68052 
3676 230 3 1.008 0.03 6.58139 2.00891 4.13229 55.7637 51.1913 4.13229 1 1 0 -0.0322324 0.00785745 -0.00134095 -1.65604 0.0912883 -12.3873 
8396 525 3 1.008 0.03 3.29177 6.65912 1.75816 101.656 105.024 -96.6065 2 2 -2 0.019511 0.00112982 0.00339613 7.33543 -10.2944 -2.43357 
3669 230 2 12.01 0.11 6.5264 0.921314 4.1404 55.7087 50.1037 4.1404 1 1 0 -0.000313843 -0.00467838 -0.00551452 -16.8494 28.768 35.5999 
3667 230 2 12.01 0.14 4.49987 0.614699 5.39782 53.6822 49.797 5.39782 1 1 0 -0.00109911 -0.00208053 -0.0123123 1.18911 -2.74533 10.3135 
3671 230 3 1.008 0.03 4.08 1.40717 4.77249 53.2623 50.5895 4.77249 1 1 0 0.00293195 -0.00610256 -0.0111811 -0.126805 -3.27629 0.222153 
7521 471 1 16 -0.4 8.081 7.17736 3.94629 -41.1014 7.17736 3.94629 -1 0 0 0.00195425 0.00444417 -0.00450681 3.67374 -3.92522 -18.5951 
3677 230 3 1.008 0.03 7.53336 0.623081 4.09243 56.7157 49.8054 4.09243 1 1 0 0.0258753 0.00982259 -0.00903202 20.8239 -11.3059 2.88968 
3391 212 3 1.008 0.03 3.80311 7.51233 5.54183 3.80311 -41.67 -43.6405 0 -1 -1 -0.00483056 -0.000961458 0.00770087 -15.376 30.7115 0.857242 
5368 336 3 1.008 0.03 7.11695 3.0361 6.15127 -91.2478 -46.1462 6.15127 -2 -1 0 -0.00302732 -0.0172699 -0.0028129 -4.07001 -16.1686 -1.19591 
7525 471 2 12.01 0.11 7.44065 7.94471 4.94827 -41.7417 7.94471 4.94827 -1 0 0 0.00529064 0.000914635 0.00207335 18.3894 -29.7805 -17.808 
7533 471 3 1.008 0.03 6.52128 8.35675 4.62165 -42.6611 8.35675 4.62165 -1 0 0 -0.00699655 -0.00219933 -0.0110546 -16.5545 10.1814 -5.81357 
7531 471 3 1.008 0.03 7.29284 7.25826 5.75919 -41.8895 7.25826 5.75919 -1 0 0 -0.0252432 0.00560183 0.0125422 -7.52427 -1.17753 6.84462 
3668 230 2 12.01 0.14 3.91057 0.683617 6.81428 53.0929 49.866 6.81428 1 1 0 -0.00390303 -0.0065267 -0.000926933 7.3283 25.7752 -18.1606 
3675 230 3 1.008 0.03 6.03803 0.570689 3.26429 55.2204 49.753 3.26429 1 1 0 -0.00675468 -0.0213273 0.00575109 -16.2943 -8.65565 -8.16407 
7527 471 3 1.008 0.03 7.83457 8.53908 2.30497 -41.3478 8.53908 2.30497 -1 0 0 -0.0046384 0.0102141 -0.00450351 14.7838 -10.1333 21.8432 
5363 336 2 12.01 0.14 7.19776 4.09064 6.27438 -91.1669 -45.0917 6.27438 -2 -1 0 -0.000616331 0.00248529 -0.00419086 8.83101 15.078 11.6335 
5367 336 3 1.008 0.03 6.69743 4.55373 5.42049 -91.6673 -44.6286 5.42049 -2 -1 0 -0.0101775 0.00242462 -0.0102659 5.08542 3.61704 0.80768 
3367 211 3 1.008 0.03 8.53372 1.25115 6.68902 8.53372 1.25115 154.236 0 0 3 0.0144541 0.0017813 -0.0028982 -5.37645 2.29116 -0.172744 
6306 395 1 16 -0.4 7.22519 0.680994 1.16809 105.59 49.8633 -48.0143 2 1 -1 0.00102983 0.00490999 -0.00081505 -4.573 1.58304 -18.8859 
3665 230 1 16 -0.4 5.90838 0.683927 5.42159 55.0907 49.8663 5.42159 1 1 0 -0.00220647 -0.00102217 -0.00191224 14.2617 -7.33836 -8.79584 
6310 395 2 12.01 0.11 8.43384 1.29453 0.699166 106.799 50.4769 -48.4832 2 1 -1 0.00333447 -0.00394953 0.0119401 9.32768 -75.2405 -2.06066 
3674 230 3 1.008 0.03 2.87036 0.706138 6.62858 52.0527 49.8885 6.62858 1 1 0 -0.0121034 -0.014759 -0.0137648 -24.3718 8.65151 3.54079 
3386 212 3 1.008 0.03 1.22382 7.66163 6.27542 1.22382 -41.5207 -42.9069 0 -1 -1 0.0116334 -0.00805238 0.000777013 11.2304 -10.4204 -6.13811 
7353 460 3 1.008 0.03 0.698114 2.73549 2.69551 -48.4842 -95.6292 101.06 -1 -2 2 -0.0240943 -0.00979649 0.0199015 -15.0574 3.73398 16.0135 
5361 336 1 16 -0.4 8.57841 4.39325 6.44022 -89.7863 -44.7891 6.44022 -2 -1 0 0.00353887 -0.0051001 0.00121456 -7.59971 18.7307 9.33252 
3673 230 3 1.008 0.03 4.22414 1.5853 7.34718 53.4065 50.7676 7.34718 1 1 0 0.0116136 0.0256562 0.0112878 -1.24141 -0.395069 -1.68597 
7534 471 3 1.008 0.03 9.17303 4.38896 0.824082 -40.0093 4.38896 0.824082 -1 0 0 0.00726791 0.00977118 0.0195734 -4.14418 -13.4121 0.311028 
8686 543 3 1.008 0.03 15.2539 1.2551 5.20582 -33.9284 50.4374 103.571 -1 1 2 -0.00182482 -0.0184175 0.0196105 11.3162 -10.5257 -19.3505 
5365 336 2 12.01 0.11 9.32996 4.12015 5.31538 -89.0347 -45.0622 5.31538 -2 -1 0 -0.00436246 -0.0022974 -0.0112748 16.021 1.25534 -15.5936 
5372 336 3 1.008 0.03 8.80038 4.50559 4.42891 -89.5643 -44.6768 4.42891 -2 -1 0 0.00310722 -0.0016807 -0.0102164 9.75291 -2.79552 1.682 
5371 336 3 1.008 0.03 9.31861 3.03324 5.31938 -89.0461 -46.1491 5.31938 -2 -1 0 -0.0106949 -0.00431706 0.00642668 9.12914 -2.01504 -11.8408 
263 17 3 1.008 0.03 12.5469 1.94549 4.42714 61.7292 1.94549 4.42714 1 0 0 0.0145669 -0.029587 -0.0131442 10.6352 -2.57207 4.41992 
8680 543 3 1.008 0.03 16.2294 3.4578 5.67753 -32.9529 52.6402 104.042 -1 1 2 -0.0263316 0.0229147 -0.000330683 26.5286 -18.0947 26.083 
8673 543 1 16 -0.4 14.3159 3.62837 5.02811 -34.8665 52.8107 103.393 -1 1 2 -0.00403123 -0.00729038 0.00703762 6.83591 14.3727 9.55525 
8685 543 3 1.008 0.03 13.6718 5.62197 5.35745 -35.5105 54.8043 103.722 -1 1 2 -0.00140803 -0.0111702 0.00231885 1.71058 -11.6917 4.55791 
258 17 1 16 -0.4 12.0867 3.13462 1.36032 61.269 3.13462 1.36032 1 0 0 -0.00795625 0.00406015 -0.00501967 -14.7031 -9.39739 16.9 
260 17 2 12.01 0.14 12.1282 3.24986 2.81777 61.3106 3.24986 2.81777 1 0 0 0.00499301 -0.0051372 0.00562161 -7.05998 31.9952 -30.1498 
266 17 3 1.008 0.03 13.0957 3.68922 2.99574 62.2781 3.68922 2.99574 1 0 0 0.031045 0.00544255 -0.000906913 5.19703 1.8743 3.04167 
265 17 3 1.008 0.03 11.3996 3.97668 3.27393 60.582 3.97668 3.27393 1 0 0 -0.0130943 0.0229588 -4.23643e-05 11.3784 -17.7152 -14.8928 
272 17 3 1.008 0.03 13.2838 4.72834 0.828788 62.4662 4.72834 0.828788 1 0 0 0.00547983 0.0130049 -0.0236176 16.817 -2.06618 5.63047 
5460 342 2 12.01 0.14 15.0383 7.86819 3.45388 15.0383 57.0505 3.45388 0 1 0 0.00280804 0.000216145 -0.00279393 9.05983 26.8832 -35.5151 
259 17 2 12.01 0.14 12.0872 1.87566 3.45485 61.2696 1.87566 3.45485 1 0 0 -0.00167015 -0.00058454 -0.00141213 0.324489 -14.8835 2.21588 
264 17 3 1.008 0.03 12.6162 1.13093 2.82351 61.7986 1.13093 2.82351 1 0 0 -0.0220601 -0.00776488 0.0152985 -7.38888 6.90608 10.1011 
5471 342 3 1.008 0.03 12.0752 6.72785 3.34315 12.0752 55.9102 3.34315 0 1 0 0.00975554 0.0259107 0.0261144 20.5424 22.733 2.93517 
5462 342 2 12.01 0.11 12.7718 7.53402 2.96401 12.7718 56.7164 2.96401 0 1 0 -0.00346519 0.00165394 0.00670502 -47.7196 -20.9031 -13.0984 
5458 342 1 16 -0.4 14.0665 7.03356 2.76113 14.0665 56.2159 2.76113 0 1 0 -0.00201453 -0.00701292 -0.0018211 18.7499 21.7767 29.0632 
8679 543 3 1.008 0.03 16.0368 4.77725 4.58695 -33.1456 53.9596 102.952 -1 1 2 0.0108832 -0.00915676 0.0016156 -13.6595 -17.5453 13.8747 
8675 543 2 12.01 0.14 15.7189 3.72181 4.81842 -33.4635 52.9042 103.183 -1 1 2 0.00286505 0.00404674 -0.00286224 1.49676 31.9987 -92.8883 
5472 342 3 1.008 0.03 12.5882 8.53048 3.39635 12.5882 57.7128 3.39635 0 1 0 -0.00662138 0.0201792 0.0354871 10.1283 -9.76676 6.90602 
7530 471 3 1.008 0.03 10.0164 6.52891 2.06207 -39.1659 6.52891 2.06207 -1 0 0 -0.00704344 0.0165857 -0.0418132 20.6814 -17.5198 0.668787 
7524 471 2 12.01 0.14 9.13591 6.96957 1.68812 -40.0464 6.96957 1.68812 -1 0 0 -0.00550246 0.00946522 -0.00116392 2.0948 69.9144 -18.5481 
7529 471 3 1.008 0.03 9.34586 7.61475 0.738436 -39.8365 7.61475 0.738436 -1 0 0 -0.0281578 -0.0188632 0.00371373 -2.43128 -30.2218 43.1089 
5465 342 3 1.008 0.03 15.8844 7.25577 3.59252 15.8844 56.4381 3.59252 0 1 0 -0.00639146 -0.0216107 -0.00702377 19.3188 -15.5808 -2.23845 
5466 342 3 1.008 0.03 14.9027 8.22414 4.46918 14.9027 57.4065 4.46918 0 1 0 0.0154004 0.000688854 0.0143206 -20.7978 -5.33484 3.74722 
5470 342 3 1.008 0.03 12.3406 7.65469 1.97476 12.3406 56.837 1.97476 0 1 0 -0.0422829 -0.0169222 -0.00687312 4.34096 2.08342 -4.75637 
8683 543 3 1.008 0.03 13.036 4.31856 6.4277 -36.1464 53.5009 104.792 -1 1 2 -0.0116442 -0.0043032 0.00969399 -6.00223 4.27878 5.42549 
8677 543 2 12.01 0.11 13.9061 4.68322 5.8993 -35.2763 53.8656 104.264 -1 1 2 0.000463848 -0.00434064 -0.0061291 8.65203 -3.25084 -12.4852 
8684 543 3 1.008 0.03 14.7268 4.88256 6.59802 -34.4556 54.0649 104.963 -1 1 2 -0.0243563 0.0255242 0.0152999 -10.1651 3.83038 7.06439 
257 17 1 16 -0.4 10.7591 1.51095 3.75679 59.9415 1.51095 3.75679 1 0 0 -0.00176675 -0.001576 0.0018071 -11.3225 -0.808371 -7.54994 
8676 543 2 12.01 0.14 16.1269 3.0366 3.41179 -33.0555 52.2189 101.776 -1 1 2 -0.00178485 -0.00741895 0.00135828 -4.02845 8.6665 60.1097 
7523 471 2 12.01 0.14 8.61752 7.91398 2.82586 -40.5648 7.91398 2.82586 -1 0 0 0.00431842 -0.00848185 -2.55924e-05 -28.0721 2.43138 -16.5841 
7528 471 3 1.008 0.03 9.39211 8.5664 3.23253 -39.7902 8.5664 3.23253 -1 0 0 0.00499529 0.0193146 0.00812781 2.12522 2.26761 -7.9348 
5373 336 3 1.008 0.03 10.39 4.51828 5.35884 -87.9747 -44.6641 5.35884 -2 -1 0 0.0220061 0.00105523 -0.00657482 -27.8354 -10.4115 1.33781 
8681 543 3 1.008 0.03 15.3612 3.21858 2.69263 -33.8212 52.4009 101.057 -1 1 2 0.0186813 0.021707 -0.0245283 -13.3554 -8.16042 -12.3467 
262 17 2 12.01 0.11 12.342 4.29636 0.576654 61.5244 4.29636 0.576654 1 0 0 -0.00022874 6.50374e-05 -0.00409933 -6.10617 12.4869 -22.0557 
6320 395 3 1.008 0.03 8.77296 2.04918 1.3908 107.138 51.2315 -47.7916 2 1 -1 0.00280862 -0.00118936 -0.00272827 8.28357 2.57189 5.70313 
271 17 3 1.008 0.03 11.6913 5.15211 0.77808 60.8736 5.15211 0.77808 1 0 0 -0.0172193 -0.0066741 0.0106851 -8.3322 -10.0354 0.982728 
8687 543 3 1.008 0.03 14.7625 0.791043 3.5631 -34.4199 49.9734 101.928 -1 1 2 0.00221785 -0.00594843 0.0164371 -12.5601 0.689249 -9.58801 
8674 543 1 16 -0.4 16.5494 1.69992 3.60303 -32.6329 50.8823 101.968 -1 1 2 0.00146327 0.00412315 -0.00438015 19.7553 18.3341 -14.4307 
8678 543 2 12.01 0.11 15.6117 0.9125 4.19553 -33.5706 50.0948 102.56 -1 1 2 0.0084818 0.00100004 -0.00199109 -16.2001 -31.0534 34.7732 
8533 534 2 12.01 0.11 10.8728 8.20693 7.29266 60.0552 8.20693 -41.8897 1 0 -1 0.00735632 0.00191303 -0.00325403 -50.1545 -1.68563 6.70823 
3743 234 3 1.008 0.03 12.9705 0.549508 7.33088 -36.2118 0.549508 7.33088 -1 0 0 -0.0031372 0.0336939 0.0170685 5.91074 -7.29349 13.5431 
8541 534 3 1.008 0.03 10.3328 7.25152 7.25649 59.5151 7.25152 -41.9259 1 0 -1 0.00925672 0.0283159 -0.0282669 9.62408 1.55909 -0.94113 
4486 281 2 12.01 0.11 23.3392 8.20031 1.21654 121.704 -40.982 148.764 2 -1 3 0.00171194 0.00272031 0.0104778 13.3873 -33.0096 -13.0962 
9667 606 4 14.01 -0.66 24.5426 4.66012 3.71134 24.5426 53.8425 52.8937 0 1 1 0.000746902 0.00538041 0.000164706 -2.61932 -2.52226 -5.49051 
9676 606 6 16 -0.53 24.6388 3.46668 1.52857 24.6388 52.649 50.7109 0 1 1 -0.000569069 0.00426245 0.00617943 0.910148 -0.871194 2.39117 
8682 543 3 1.008 0.03 16.9839 3.51277 2.98336 -32.1985 52.6951 101.348 -1 1 2 -0.00561191 -0.00884681 -0.00971389 11.3046 9.62197 -1.52938 
2533 159 2 12.01 0.11 21.1918 2.23527 1.94781 21.1918 51.4176 51.1302 0 1 1 0.00363775 -0.00138424 -0.00342187 -12.6818 37.4322 15.0592 
2536 159 3 1.008 0.03 18.9304 1.31624 1.10912 18.9304 50.4986 50.2915 0 1 1 0.00372381 0.00755798 -0.00261663 -0.564521 7.06187 -1.2194 
1531 96 3 1.008 0.03 24.7244 0.914329 2.20078 24.7244 50.0967 51.3831 0 1 1 0.0113962 0.0116436 0.019438 0.627715 -5.80264 17.8247 
7963 498 3 1.008 0.03 20.8357 0.714963 4.6835 20.8357 49.8973 53.8659 0 1 1 0.014278 0.01791 0.00976359 3.6986 -4.87638 -9.62013 
9673 606 8 19 -0.16 23.2177 6.88206 5.12189 23.2177 56.0644 54.3042 0 1 1 0.00211351 -0.00411138 -0.000194106 -28.7754 -35.4035 -3.62399 
8818 552 1 16 -0.4 18.6765 2.03628 6.28614 18.6765 100.401 55.4685 0 2 1 0.00314465 0.000884164 0.00387739 -1.09951 -8.83268 -0.880778 
2535 159 3 1.008 0.03 18.9982 1.50401 2.86702 18.9982 50.6864 52.0494 0 1 1 -0.0167411 -0.00354337 0.00752842 -15.1463 23.2345 16.8551 
9670 606 6 16 -0.53 24.2856 4.59609 6.16484 24.2856 53.7784 55.3472 0 1 1 0.00301875 0.00472317 -0.00612409 -11.445 -5.88178 -16.2255 
2541 159 3 1.008 0.03 20.9003 2.91426 2.81752 20.9003 52.0966 51.9999 0 1 1 0.00545956 0.00720395 0.0111981 3.86686 -22.7321 -25.792 
9669 606 6 16 -0.53 22.6835 3.22212 4.88313 22.6835 52.4045 54.0655 0 1 1 -0.00013243 -0.00609755 -0.00266024 6.26503 -17.5972 -20.8604 
8822 552 2 12.01 0.11 19.2839 3.23496 5.87096 19.2839 101.6 55.0533 0 2 1 0.00656053 0.000539386 -0.0015077 4.59023 8.28122 1.20879 
8831 552 3 1.008 0.03 19.3516 3.9604 6.69036 19.3516 102.325 55.8727 0 2 1 -0.0213561 0.0132333 0.0001977 -2.02839 1.18937 -5.66865 
786 50 1 16 -0.4 18.314 7.85832 2.61736 67.4963 7.85832 2.61736 1 0 0 -0.00527785 -0.00450604 0.00145679 -8.20443 4.55357 -19.9809 
9674 606 8 19 -0.16 21.5025 5.62085 5.6801 21.5025 54.8032 54.8624 0 1 1 0.000342106 -0.00316714 -0.00985447 16.6065 14.6214 -39.5546 
9672 606 8 19 -0.16 22.0417 6.00052 3.55641 22.0417 55.1829 52.7388 0 1 1 -0.00466919 0.00180232 -0.00148591 -15.2073 -4.99157 -12.239 
9671 606 7 12.01 0.35 22.5022 5.77352 4.75694 22.5022 54.9559 53.9393 0 1 1 0.00141979 0.000572879 0.0120761 24.5809 12.8312 74.1093 
9668 606 5 32.06 1.02 23.6124 4.31064 4.89711 23.6124 53.493 54.0795 0 1 1 0.00172408 0.00258376 -0.00144287 6.59811 46.8821 24.3346 
788 50 2 12.01 0.14 19.018 7.47942 3.77094 68.2003 7.47942 3.77094 1 0 0 -0.00169897 0.000184779 0.00562345 7.85768 17.9729 13.5462 
793 50 3 1.008 0.03 19.9654 6.9442 3.61842 69.1478 6.9442 3.61842 1 0 0 0.0216772 -0.0362978 0.026781 -10.6175 -4.15791 -5.59663 
794 50 3 1.008 0.03 18.3479 6.89798 4.40023 67.5302 6.89798 4.40023 1 0 0 0.0208021 -0.0353637 -0.0276905 1.21744 -4.36906 0.881754 
8832 552 3 1.008 0.03 20.3029 2.95947 5.61158 20.3029 101.324 54.7939 0 2 1 0.000819529 0.0211861 0.0285649 -1.7589 5.44535 -4.19217 
2531 159 2 12.01 0.14 19.294 0.916176 2.05187 19.294 50.0985 51.2342 0 1 1 0.00601009 0.00525874 -0.000887981 17.3267 -4.19528 -13.0929 
2529 159 1 16 -0.4 20.7362 0.894561 2.08265 20.7362 50.0769 51.265 0 1 1 -0.00112172 0.00405645 0.00270855 -22.3912 -4.91393 -4.89799 
8830 552 3 1.008 0.03 18.7595 3.7154 5.01563 18.7595 102.08 54.198 0 2 1 0.0175541 0.0018145 0.0250439 8.8231 -9.6492 9.24284 
798 50 3 1.008 0.03 17.6917 5.9651 2.06896 66.874 5.9651 2.06896 1 0 0 -0.0104513 -0.0350505 -0.0375148 15.2786 15.3519 -16.0625 
4489 281 3 1.008 0.03 24.8475 7.25993 2.90821 123.212 -41.9224 150.455 2 -1 3 -0.0135357 -0.0242224 0.0146141 -1.37748 1.53429 10.9375 
790 50 2 12.01 0.11 18.2119 6.85696 1.61343 67.3943 6.85696 1.61343 1 0 0 0.00125787 0.00194334 0.00394355 4.82028 -10.9549 20.4437 
799 50 3 1.008 0.03 17.6809 7.19241 0.716874 66.8632 7.19241 0.716874 1 0 0 0.00994657 0.00676127 0.00367668 -1.32621 1.11162 4.99968 
791 50 3 1.008 0.03 19.4612 8.56662 5.52386 68.6436 8.56662 5.52386 1 0 0 0.0211336 -0.0378006 -0.0196184 -1.00749 7.58551 16.425 
4490 281 3 1.008 0.03 23.5525 8.28346 3.75714 121.917 -40.8989 151.304 2 -1 3 0.0134423 -0.00469945 0.00400425 2.81564 -8.43916 -7.42298 
2539 159 3 1.008 0.03 22.256 2.29275 1.90029 22.256 51.4751 51.0826 0 1 1 -0.0146069 0.0191997 -0.0106267 14.5367 -3.89993 2.06648 
2540 159 3 1.008 0.03 20.8677 2.71056 1.00449 20.8677 51.8929 50.1868 0 1 1 -0.00416286 0.0136434 -0.00210642 -2.25686 -5.56757 8.35481 
4484 281 2 12.01 0.14 24.4843 8.25864 3.18401 122.849 -40.9237 150.731 2 -1 3 0.00885728 -0.00906445 -0.00100322 -7.25684 22.4022 -4.59279 
4494 281 3 1.008 0.03 23.9123 7.36221 0.681694 122.277 -41.8201 148.229 2 -1 3 -0.0184316 0.0116234 -0.0315785 -16.3419 26.9434 22.9091 
800 50 3 1.008 0.03 19.2592 6.67624 1.32244 68.4415 6.67624 1.32244 1 0 0 -0.010308 0.00294382 0.016076 -10.0282 -10.7047 -1.49528 
4495 281 3 1.008 0.03 22.4876 7.73622 1.79048 120.852 -41.4461 149.338 2 -1 3 -0.0325738 0.0124865 -0.0175242 11.6095 14.9459 -17.452 
3387 212 3 1.008 0.03 0.557069 11.7691 4.66409 0.557069 -37.4132 -44.5183 0 -1 -1 0.0248494 0.0128647 0.0252676 -13.2027 -20.029 -10.0838 
768 48 3 1.008 0.03 7.02003 13.8131 1.01927 105.385 13.8131 1.01927 2 0 0 0.00405753 0.0139922 -0.00633 -18.6889 -26.939 -0.504941 
3380 212 2 12.01 0.14 1.38774 8.72719 6.25327 1.38774 -40.4552 -42.9291 0 -1 -1 -0.000644558 -0.00642119 -0.000614748 -3.15047 0.727681 -13.7423 
3390 212 3 1.008 0.03 4.21856 9.08047 6.26344 4.21856 -40.1019 -42.9189 0 -1 -1 0.00764243 0.00654836 -0.0180885 3.10973 11.2083 25.1513 
3622 227 2 12.01 0.11 2.52741 16.237 5.98301 100.892 16.237 -43.1993 2 0 -1 0.000891868 0.0092644 -0.000704259 35.1925 22.7986 -0.59017 
6529 409 1 16 -0.4 1.80578 9.04794 0.53214 149.353 9.04794 49.7145 3 0 1 -0.00622106 0.00372796 -0.000872251 -0.701354 -0.426743 5.21598 
758 48 2 12.01 0.11 6.70785 12.7949 1.40975 105.073 12.7949 1.40975 2 0 0 -0.00339731 -0.00211197 -0.00166215 3.56628 31.86 -11.9074 
767 48 3 1.008 0.03 5.71639 12.9144 1.85806 104.081 12.9144 1.85806 2 0 0 0.0101525 0.0193683 0.01594 -0.0948235 -6.18868 -8.09338 
6534 409 2 12.01 0.11 3.85819 11.8203 3.74833 151.405 11.8203 52.9307 3 0 1 -0.000565595 -0.00642089 -0.000659811 -6.61406 12.9033 -43.0602 
6544 409 3 1.008 0.03 3.78153 12.8845 3.94471 151.329 12.8845 53.1271 3 0 1 0.00295398 0.000901274 -0.00548819 -2.35868 2.60662 3.70653 
3378 212 1 16 -0.4 2.35635 9.16349 5.30194 2.35635 -40.0189 -43.8804 0 -1 -1 -0.00481489 0.00231286 0.00300456 -7.93085 -9.7097 -2.12112 
3382 212 2 12.01 0.11 3.66393 8.63964 5.48466 3.66393 -40.5427 -43.6977 0 -1 -1 -0.0051641 0.000911813 0.00353613 10.2026 -41.2813 -15.3566 
6542 409 3 1.008 0.03 3.50125 11.2758 4.55782 151.048 11.2758 53.7402 3 0 1 0.0308814 0.00112451 0.0101278 -15.2036 -11.4383 28.2879 
3392 212 3 1.008 0.03 4.26606 8.92557 4.63712 4.26606 -40.2568 -44.5452 0 -1 -1 -0.0111647 -0.0143487 0.00761317 -0.901094 1.53865 -8.60577 
6537 409 3 1.008 0.03 2.70611 9.56103 2.90008 150.253 9.56103 52.0824 3 0 1 0.00412197 -0.018977 0.0085647 9.04397 -7.45027 0.466183 
6538 409 3 1.008 0.03 4.45868 10.0069 2.34679 152.006 10.0069 51.5291 3 0 1 0.00622167 0.0184409 -0.00963194 -30.2053 -13.2787 -6.65958 
6543 409 3 1.008 0.03 4.92177 11.5813 3.71432 152.469 11.5813 52.8967 3 0 1 -0.0171155 -0.000278675 -0.00719692 0.571194 2.35201 -6.28737 
6530 409 1 16 -0.4 3.0894 11.4893 2.54348 150.636 11.4893 51.7258 3 0 1 -0.000730926 0.000129998 -0.00147355 28.7408 7.10446 36.4205 
6532 409 2 12.01 0.14 3.33865 10.1419 2.23012 150.886 10.1419 51.4125 3 0 1 0.00282248 -0.00382114 -0.000921205 8.68049 9.72853 -12.9052 
6531 409 2 12.01 0.14 2.86302 9.99855 0.770934 150.41 9.99855 49.9533 3 0 1 0.00548896 0.00122809 -0.00623984 15.1414 -21.272 -21.5686 
1294 81 3 1.008 0.03 3.13109 13.7344 1.60232 3.13109 62.9167 1.60232 0 1 0 0.0256505 -0.00534476 -5.02228e-05 14.2822 -46.5803 11.1016 
1286 81 2 12.01 0.11 3.18536 14.6868 1.24991 3.18536 63.8691 1.24991 0 1 0 0.00254889 -0.00211694 -0.00166877 9.04139 14.3764 -3.22842 
3385 212 3 1.008 0.03 1.75384 8.95911 7.21917 1.75384 -40.2232 -41.9632 0 -1 -1 0.020648 -0.00443897 -0.00755187 -2.72132 11.8319 18.4218 
2228 140 2 12.01 0.14 7.47097 15.8036 3.41493 56.6533 15.8036 -45.7674 1 0 -1 -0.00109269 0.00662134 0.00131367 -22.8551 -9.98916 35.4807 
2233 140 3 1.008 0.03 7.62547 14.7288 3.3883 56.8078 14.7288 -45.7941 1 0 -1 0.00714514 -0.0169177 -0.0179864 5.26185 2.19885 -6.76027 
7606 476 2 12.01 0.11 7.27709 12.0986 5.56718 7.27709 -37.0838 5.56718 0 -1 0 0.00273954 -0.00303323 -0.00635182 0.275969 -27.1824 -12.4024 
2234 140 3 1.008 0.03 6.87554 16.1007 2.58056 56.0579 16.1007 -46.6018 1 0 -1 0.00684593 0.00947122 0.00928912 0.511619 5.14845 -20.0317 
7615 476 3 1.008 0.03 6.86608 12.9685 5.04131 6.86608 -36.2138 5.04131 0 -1 0 -0.0126016 0.0104531 -0.0162374 7.05345 0.753401 5.13909 
2231 140 3 1.008 0.03 5.4894 15.5861 4.45816 54.6718 15.5861 -44.7242 1 0 -1 -0.00532408 0.0114603 -0.00949122 23.461 11.4432 2.54147 
754 48 1 16 -0.4 7.60155 12.5202 2.43309 105.966 12.5202 2.43309 2 0 0 0.0052924 5.45339e-05 0.0005137 5.90165 -9.13818 22.8406 
1295 81 3 1.008 0.03 3.13753 15.2361 2.13981 3.13753 64.4184 2.13981 0 1 0 0.0201144 0.00699704 0.00706496 -21.4331 20.4175 21.706 
3631 227 3 1.008 0.03 3.37706 16.0503 5.32335 101.742 16.0503 -43.859 2 0 -1 -0.0174876 -0.00905445 -0.00793879 -3.76802 5.99967 -4.58683 
7532 471 3 1.008 0.03 8.13044 8.671 5.25166 -41.0519 8.671 5.25166 -1 0 0 0.000763732 -0.0113259 -0.0148908 12.6175 26.0421 12.8305 
7616 476 3 1.008 0.03 8.28619 12.3227 6.03242 8.28619 -36.8597 6.03242 0 -1 0 -0.0238965 -0.0174402 -0.00456543 -31.5813 -2.10742 -2.34219 
7614 476 3 1.008 0.03 7.53096 11.389 4.71716 7.53096 -37.7933 4.71716 0 -1 0 -6.49031e-05 0.00675447 -0.0361022 -9.4483 14.534 27.213 
766 48 3 1.008 0.03 6.776 12.0014 0.646316 105.141 12.0014 0.646316 2 0 0 -0.0223653 0.0155279 0.00283035 -7.90718 8.59218 2.23083 
1296 81 3 1.008 0.03 2.34151 14.7025 0.599258 2.34151 63.8848 0.599258 0 1 0 -0.0178393 -0.00880271 0.0187062 -13.5059 14.9679 -10.3218 
2227 140 2 12.01 0.14 6.50926 16.0425 4.61287 55.6916 16.0425 -44.5695 1 0 -1 9.71131e-05 0.00341613 0.00871076 12.8017 33.4213 -5.53549 
2225 140 1 16 -0.4 7.09595 15.5426 5.75971 56.2783 15.5426 -43.4226 1 0 -1 0.00295668 0.00323084 -0.000988882 -23.0251 -45.6946 31.195 
2229 140 2 12.01 0.11 8.18719 16.1358 6.40825 57.3695 16.1358 -42.7741 1 0 -1 -0.00817136 0.00707795 0.00939718 1.90388 -51.795 43.0814 
7602 476 1 16 -0.4 6.209 11.5204 6.41391 6.209 -37.662 6.41391 0 -1 0 0.00112518 -0.0105199 -0.00255362 29.2098 12.3735 -4.55237 
3381 212 2 12.01 0.11 0.464003 11.6685 5.73574 0.464003 -37.5138 -43.4466 0 -1 -1 -0.00178711 -0.001825 0.00409965 49.4594 43.4019 -15.3847 
7604 476 2 12.01 0.14 5.58797 12.458 7.30748 5.58797 -36.7244 7.30748 0 -1 0 -0.00348404 0.00117792 0.0036405 8.66374 7.61071 12.3591 
3389 212 3 1.008 0.03 1.54767 11.5924 5.99641 1.54767 -37.59 -43.1859 0 -1 -1 0.00501206 -0.0179326 -0.00246303 -20.4776 3.48144 6.43174 
1282 81 1 16 -0.4 4.39885 15.1243 0.723886 4.39885 64.3067 0.723886 0 1 0 0.000431053 -0.00268712 -0.00421603 -2.3046 19.2393 -31.4395 
3630 227 3 1.008 0.03 2.34417 15.2863 6.36251 100.709 15.2863 -42.8198 2 0 -1 0.0210375 0.0148167 0.00263566 -18.9256 -25.2141 12.0447 
6533 409 2 12.01 0.11 0.477038 9.4343 0.936766 148.024 9.4343 50.1191 3 0 1 0.000277843 -0.00141594 0.00977339 17.1829 39.4657 -9.49911 
7610 476 3 1.008 0.03 5.21829 13.2602 6.6132 5.21829 -35.9222 6.6132 0 -1 0 0.00203874 -0.00593664 -0.00189106 1.21395 -9.86895 23.2417 
6536 409 3 1.008 0.03 2.46715 10.947 0.437645 150.014 10.947 49.62 3 0 1 -0.0154253 -0.0187143 -0.00838102 3.78598 7.36343 -8.74256 
762 48 3 1.008 0.03 9.13477 11.7627 1.31471 107.499 11.7627 1.31471 2 0 0 0.00468089 -0.039881 -0.00999453 4.4668 -15.7833 -11.0729 
7064 442 3 1.008 0.03 12.9358 15.1234 1.534 -36.2465 15.1234 -96.8307 -1 0 -2 0.0117718 -0.0110544 0.000820564 16.3836 -12.6729 6.11836 
7063 442 3 1.008 0.03 14.4883 14.9459 2.53062 -34.694 14.9459 -95.8341 -1 0 -2 -0.0065612 0.000308218 -0.00711666 0.823097 -14.4232 7.85124 
5459 342 2 12.01 0.14 15.4881 9.1048 2.56052 15.4881 58.2871 2.56052 0 1 0 0.00111469 0.00554025 0.00285383 -39.6172 -30.1711 3.74588 
5464 342 3 1.008 0.03 16.2838 9.64068 2.94863 16.2838 58.823 2.94863 0 1 0 -0.0104907 0.00336461 -0.00369884 38.0871 6.18093 15.2819 
5463 342 3 1.008 0.03 15.6909 8.82865 1.53735 15.6909 58.011 1.53735 0 1 0 -0.00233088 0.0123467 0.00490019 4.30391 -5.72791 -6.32521 
7059 442 2 12.01 0.14 13.8416 15.5901 1.96723 -35.3407 15.5901 -96.3975 -1 0 -2 0.00473858 0.000673943 0.00290039 -40.5609 11.526 -14.3071 
5457 342 1 16 -0.4 14.4849 10.0749 2.59723 14.4849 59.2572 2.59723 0 1 0 0.00208566 -0.00513418 0.00188332 -24.6942 25.1883 -21.1949 
5461 342 2 12.01 0.11 14.677 11.1884 1.66929 14.677 60.3708 1.66929 0 1 0 -0.00546575 -0.00559699 -0.00702446 -13.189 -16.9174 36.6201 
5467 342 3 1.008 0.03 14.8284 10.8741 0.647168 14.8284 60.0564 0.647168 0 1 0 -0.0521033 0.000861721 0.00466119 -6.97902 -1.32214 -6.4479 
5469 342 3 1.008 0.03 15.6219 11.5907 1.98722 15.6219 60.7731 1.98722 0 1 0 -0.00489312 -0.0122843 -0.0113686 5.40543 16.8577 -0.727326 
5468 342 3 1.008 0.03 13.8418 11.939 1.78965 13.8418 61.1214 1.78965 0 1 0 0.0160033 -0.00778585 0.00142924 21.764 -15.6567 -7.81874 
763 48 3 1.008 0.03 12.4595 11.9999 3.66228 110.824 11.9999 3.66228 2 0 0 -0.0110835 -0.0163237 0.0146281 -1.78423 4.28415 -6.22928 
757 48 2 12.01 0.11 11.6499 11.6203 4.27615 110.015 11.6203 4.27615 2 0 0 0.00447207 0.00238694 -0.00396922 17.2835 -42.7913 -22.3409 
753 48 1 16 -0.4 10.428 11.4666 3.58436 108.793 11.4666 3.58436 2 0 0 -0.00052644 -0.00323865 -0.00496632 -1.87527 5.09917 -2.70413 
755 48 2 12.01 0.14 10.0217 12.7154 3.06558 108.386 12.7154 3.06558 2 0 0 -0.00777824 -0.00405194 0.00430334 -36.6226 11.6314 18.6609 
764 48 3 1.008 0.03 11.5911 12.2825 5.09715 109.956 12.2825 5.09715 2 0 0 -0.013385 -0.015843 0.0318822 -3.43664 5.85843 25.4319 
759 48 3 1.008 0.03 9.60746 13.3899 3.8688 107.972 13.3899 3.8688 2 0 0 -0.0117345 -0.00722622 0.00376141 14.2101 -15.5024 -14.8252 
2230 140 2 12.01 0.11 9.30561 16.7378 2.29694 58.488 16.7378 -46.8854 1 0 -1 0.000759436 0.000283459 0.010666 38.3341 -15.759 41.5903 
2239 140 3 1.008 0.03 9.7399 15.8154 1.77369 58.9222 15.8154 -47.4087 1 0 -1 -0.0158324 -0.00787362 -0.0151769 -20.5866 28.5197 15.6619 
10123 636 8 19 -0.16 15.5205 13.6092 5.1708 15.5205 13.6092 54.3531 0 0 1 -0.00126078 0.00393126 0.000661226 -1.61799 4.49587 14.6229 
765 48 3 1.008 0.03 12.0124 10.5835 4.4813 110.377 10.5835 4.4813 2 0 0 -0.001756 0.00813209 0.00934255 -7.70202 20.1183 12.5092 
7069 442 3 1.008 0.03 13.4179 15.4429 4.39501 -35.7644 15.4429 -93.9697 -1 0 -2 -0.00632751 0.0127304 -0.0231285 1.52852 -4.98395 12.4254 
7068 442 3 1.008 0.03 11.805 15.4369 3.68639 -37.3773 15.4369 -94.6783 -1 0 -2 0.00340813 -0.0293691 -0.012096 -3.88653 -1.78977 -2.71365 
7061 442 2 12.01 0.11 12.6728 16.0485 3.90552 -36.5095 16.0485 -94.4592 -1 0 -2 -0.00107739 0.00628575 -0.00800489 8.80003 -7.01975 -14.7476 
7057 442 1 16 -0.4 13.2771 16.6104 2.76295 -35.9053 16.6104 -95.6017 -1 0 -2 0.00388092 -0.00471663 0.00157238 8.60523 4.95208 1.72348 
8539 534 3 1.008 0.03 10.6848 8.68963 6.33352 59.8672 8.68963 -42.8488 1 0 -1 -0.0199452 0.00172938 0.0122007 9.07298 0.753975 -2.36487 
760 48 3 1.008 0.03 10.8956 13.1922 2.65605 109.26 13.1922 2.65605 2 0 0 -0.00922428 0.0138067 0.00100782 3.94283 9.00534 -9.28095 
756 48 2 12.01 0.14 8.92598 12.5693 1.9736 107.291 12.5693 1.9736 2 0 0 -0.00163289 0.000156615 -0.00635033 22.5487 2.18535 14.5709 
10121 636 7 12.01 0.35 16.5635 12.8866 5.55767 16.5635 12.8866 54.74 0 0 1 -0.000876855 0.00479172 -0.0020248 -9.96296 -51.7962 -7.28675 
10124 636 8 19 -0.16 16.1238 11.7225 6.12146 16.1238 11.7225 55.3038 0 0 1 -0.00187809 0.00279177 0.000959236 3.10568 38.816 -4.64666 
2226 140 1 16 -0.4 8.68706 16.5111 3.58888 57.8694 16.5111 -45.5935 1 0 -1 0.00580074 -0.0040762 0.00277312 4.93925 -0.219606 -33.9219 
2236 140 3 1.008 0.03 9.07654 15.6466 6.02577 58.2589 15.6466 -43.1566 1 0 -1 -0.0310404 -0.0200773 -0.0157029 7.55793 9.40597 -5.50534 
7060 442 2 12.01 0.14 14.6423 16.1411 0.832974 -34.5401 16.1411 -97.5317 -1 0 -2 0.00353304 0.00210964 0.00505514 19.9055 25.4425 15.136 
761 48 3 1.008 0.03 9.02757 13.456 1.39874 107.392 13.456 1.39874 2 0 0 -0.044025 0.0112242 0.00246041 5.50138 15.023 -12.9507 
8971 561 3 1.008 0.03 22.3679 14.197 1.26503 22.3679 -34.9854 50.4474 0 -1 1 -0.0117308 0.00690567 0.000853071 14.8575 0.00906174 -18.8477 
8968 561 3 1.008 0.03 23.6462 12.2046 1.84174 23.6462 -36.9778 51.0241 0 -1 1 -0.0294758 -0.00140359 0.0183895 12.4935 -0.667789 -0.58465 
8965 561 2 12.01 0.11 23.2458 14.215 0.56871 23.2458 -34.9673 49.7511 0 -1 1 -0.00493514 -0.0038957 0.00172699 -21.4528 6.09661 -4.28361 
8963 561 2 12.01 0.14 24.5915 12.7818 1.82453 24.5915 -36.4005 51.0069 0 -1 1 0.00117098 -0.00061756 0.0084182 8.67784 36.9056 -15.9803 