ITEM: TIMESTEP
1250000
ITEM: NUMBER OF ATOMS
10479
ITEM: BOX BOUNDS pp pp pp
4.0882558190751794e-01 4.9591174418091420e+01
4.0882558190751794e-01 4.9591174418091420e+01
4.0882558190751794e-01 4.9591174418091420e+01
ITEM: ATOMS id mol type mass q x y z xu yu zu ix iy iz vx vy vz fx fy fz 
3089 194 1 16 -0.4 6.59268 0.42977 3.47112 104.957 49.6121 -144.076 2 1 -3 0.00284737 -0.00550934 -0.0021553 21.9407 20.3501 29.7569 
3091 194 2 12.01 0.14 6.93754 1.37665 4.53351 105.302 50.559 -143.014 2 1 -3 -0.00344881 -0.00127103 0.00213798 -48.2022 -49.3948 11.409 
5532 346 3 1.008 0.03 1.97761 5.47398 6.74824 51.16 -43.7084 55.9306 1 -1 1 0.00215891 -0.00626007 -0.000415276 -4.47319 -14.4846 10.8181 
5024 314 3 1.008 0.03 2.39947 5.36687 0.867505 100.764 5.36687 99.2322 2 0 2 0.00966816 0.0362374 -0.000956157 4.38855 30.3829 28.53 
5014 314 2 12.01 0.11 2.29379 6.14911 1.70222 100.658 6.14911 100.067 2 0 2 0.00170119 0.000186439 -0.00574259 -15.5524 -45.3118 -35.4504 
3095 194 3 1.008 0.03 5.94181 1.75576 4.90727 104.307 50.9381 -142.64 2 1 -3 0.000443273 0.0141479 0.0230719 29.9435 2.29397 1.37069 
5965 373 3 1.008 0.03 3.01085 1.14249 5.45664 -46.1715 99.5072 54.639 -1 2 1 0.00919583 0.0182118 -0.00339544 -6.60178 -8.47713 9.97023 
5525 346 2 12.01 0.11 1.88062 4.46819 7.21531 51.063 -44.7142 56.3977 1 -1 1 -0.00261966 0.00131111 0.00724106 -12.2461 31.3687 -29.7855 
5150 322 3 1.008 0.03 1.72719 2.92356 3.47896 1.72719 2.92356 52.6613 0 0 1 0.010449 -0.00976548 -0.00311754 -16.5209 -1.45447 0.154173 
6696 419 3 1.008 0.03 4.77944 5.94278 4.38826 4.77944 5.94278 -44.7941 0 0 -1 -0.00864036 -0.0164887 -0.0146036 -3.40332 12.783 4.22789 
6691 419 2 12.01 0.14 4.87917 6.7338 5.15859 4.87917 6.7338 -44.0238 0 0 -1 -0.00260641 -0.00448276 -0.00107877 -14.4169 -51.3359 15.9581 
6695 419 3 1.008 0.03 5.89717 7.03374 5.07038 5.89717 7.03374 -44.112 0 0 -1 0.00572344 -0.0120757 0.0432562 10.4147 27.3276 -6.21907 
5138 322 1 16 -0.4 1.02593 3.14734 1.58769 1.02593 3.14734 50.77 0 0 1 -0.000932002 -0.00236528 0.00363454 -25.7772 16.3694 20.6396 
1819 114 3 1.008 0.03 5.18034 4.27254 1.01428 103.545 53.4549 99.379 2 1 2 -0.000310382 0.0357594 -0.00522759 -12.2746 -8.28804 18.9792 
5521 346 1 16 -0.4 0.697963 3.85185 6.69852 49.8803 -45.3305 55.8809 1 -1 1 0.000696336 0.00206678 -0.00558927 15.419 -2.22148 -2.29993 
5151 322 3 1.008 0.03 0.686899 4.31958 3.37703 0.686899 4.31958 52.5594 0 0 1 -0.0034455 0.00774668 -0.0102703 -1.24452 4.16751 -7.12399 
5142 322 2 12.01 0.11 0.805568 3.3075 2.99472 0.805568 3.3075 52.1771 0 0 1 -0.00385716 0.000129392 -0.00931312 2.25645 -31.7178 4.79811 
1821 114 3 1.008 0.03 5.90301 5.91712 0.766868 104.268 55.0995 99.1316 2 1 2 -0.0164243 -0.0167337 -0.00361231 -2.24875 -20.5835 0.132265 
3090 194 1 16 -0.4 7.29391 3.59982 3.55264 105.659 52.7822 -143.994 2 1 -3 -0.00304535 -0.00537022 -0.00281033 -11.6197 1.16595 1.39476 
3092 194 2 12.01 0.14 7.91726 2.44958 4.09339 106.282 51.6319 -143.454 2 1 -3 -0.00146702 -0.00433459 -0.0071609 18.2311 12.5988 -10.508 
3102 194 3 1.008 0.03 7.71851 5.57731 3.03631 106.083 54.7597 -144.511 2 1 -3 -0.00740323 0.00729196 0.00896599 -1.87996 -5.37422 -0.92494 
3098 194 3 1.008 0.03 8.53036 2.0141 3.28762 106.895 51.1965 -144.259 2 1 -3 0.00353157 -0.0287106 0.0122686 4.53112 5.61728 11.5078 
3097 194 3 1.008 0.03 8.53924 2.84811 4.9161 106.904 52.0305 -142.631 2 1 -3 0.0061812 0.0159597 -0.00662734 -4.2693 -18.9043 -3.00924 
5022 314 3 1.008 0.03 2.51522 5.69046 2.68491 100.88 5.69046 101.05 2 0 2 0.0119108 0.0114043 -0.00688539 12.715 13.8088 -9.63328 
6700 419 3 1.008 0.03 6.17239 4.51157 6.14191 6.17239 4.51157 -43.0404 0 0 -1 -0.0146686 0.00426259 0.00214492 5.76159 -19.5592 -19.7539 
5010 314 1 16 -0.4 2.72472 7.44328 1.37225 101.089 7.44328 99.7369 2 0 2 -0.0022309 -0.00292381 -0.00473388 20.0561 19.6365 -3.77216 
4871 305 3 1.008 0.03 7.33916 8.04708 2.76898 105.704 57.2294 -46.4134 2 1 -1 -0.000484577 -0.00165362 -0.00802204 7.65335 -3.52295 -1.77873 
3094 194 2 12.01 0.11 8.14723 4.73425 3.58575 106.512 53.9166 -143.961 2 1 -3 0.00234614 0.00267794 0.000418375 -24.8126 20.3525 7.93122 
3103 194 3 1.008 0.03 8.32768 5.12978 4.58886 106.692 54.3121 -142.958 2 1 -3 0.043211 0.0310944 -0.00471148 -0.898109 -6.40018 0.948706 
3093 194 2 12.01 0.11 5.42282 0.803432 2.81289 103.788 49.9858 -144.734 2 1 -3 -0.00601237 -0.0029174 -0.000749443 7.24114 10.4868 -27.119 
6689 419 1 16 -0.4 4.7356 6.01035 6.379 4.7356 6.01035 -42.8034 0 0 -1 -0.000164868 -0.00420958 0.00306558 5.00271 8.18799 -5.18723 
6698 419 3 1.008 0.03 2.80844 7.28913 5.50372 2.80844 7.28913 -43.6786 0 0 -1 -0.00607473 -0.000421336 0.012928 -2.58111 2.69781 -0.0751814 
6692 419 2 12.01 0.14 3.71786 7.73272 5.10392 3.71786 7.73272 -44.0784 0 0 -1 0.00180069 -0.00640873 0.000692031 11.0741 -4.98795 -26.4014 
6697 419 3 1.008 0.03 3.59351 7.85772 4.01824 3.59351 7.85772 -45.1641 0 0 -1 -0.00269812 0.000451482 0.0143228 -6.49449 7.75239 7.62371 
5023 314 3 1.008 0.03 1.24962 6.27962 1.76834 99.6143 6.27962 100.133 2 0 2 -0.0125224 0.00084075 0.00732543 -23.4269 -0.342149 2.95939 
1820 114 3 1.008 0.03 6.92987 4.42742 0.784377 105.295 53.6098 99.1491 2 1 2 0.0171281 0.0360608 0.0423611 -6.74522 2.39896 0.795941 
6693 419 2 12.01 0.11 5.91903 5.3258 6.75391 5.91903 5.3258 -42.4284 0 0 -1 -0.000643741 -0.00444309 0.00998999 13.4446 30.4476 61.9973 
3100 194 3 1.008 0.03 4.52325 0.715502 3.41234 102.888 49.8979 -144.135 2 1 -3 0.00912691 -0.0119557 0.0211564 -3.18768 -3.53673 2.19713 
6701 419 3 1.008 0.03 6.8124 6.01286 6.91795 6.8124 6.01286 -42.2644 0 0 -1 0.00421176 0.00216477 -0.0143354 -25.4728 -18.0975 -11.9814 
5531 346 3 1.008 0.03 2.84217 4.05856 6.97882 52.0245 -45.1238 56.1612 1 -1 1 -0.00298977 -0.0123585 -0.0166598 5.16085 -20.8494 -0.985986 
3096 194 3 1.008 0.03 7.33251 0.690013 5.33629 105.697 49.8724 -142.211 2 1 -3 0.000940007 0.0148563 0.0387609 -1.45387 23.4106 -15.5313 
3101 194 3 1.008 0.03 5.5298 1.84228 2.46109 103.895 51.0246 -145.086 2 1 -3 -0.004031 0.00460583 0.0158067 -4.7123 -6.92906 1.59668 
443 28 3 1.008 0.03 8.14579 0.66681 1.20056 106.51 99.0315 148.748 2 2 3 -0.0122344 0.00114512 -0.0139618 -9.86652 -2.41692 -10.8812 
1813 114 2 12.01 0.11 5.9382 4.82483 0.522027 104.303 54.0072 98.8867 2 1 2 0.00313492 -0.00404951 0.000384378 12.1909 27.2211 -15.0176 
683 43 3 1.008 0.03 0.460575 6.66956 5.50651 49.6429 105.034 -43.6758 1 2 -1 -0.00456845 0.00244424 -0.0219295 12.7528 5.58964 -12.3157 
2749 172 3 1.008 0.03 3.20561 1.58192 0.759873 3.20561 1.58192 49.9422 0 0 1 -0.0195655 -0.0098325 0.0100343 10.1758 0.536864 -1.41891 
5960 373 3 1.008 0.03 4.33929 1.13485 7.36507 -44.8431 99.4995 56.5474 -1 2 1 -0.0132852 -0.0202061 -0.00449031 15.745 23.1861 7.81209 
6103 382 3 1.008 0.03 11.9697 1.27268 5.06282 -86.395 1.27268 -191.667 -2 0 -4 0.0221417 0.00876381 0.00193226 -2.69063 -7.66248 -3.92109 
6107 382 3 1.008 0.03 11.2702 0.919131 2.66845 -87.0945 0.919131 -194.061 -2 0 -4 0.00510007 0.0138872 0.00245813 1.18247 -27.4607 8.26491 
5882 368 3 1.008 0.03 10.7052 4.89918 1.56413 207.435 54.0815 -47.6182 4 1 -1 0.0235044 -0.0110737 -0.00138412 -11.8228 5.31417 -24.6731 
4285 268 3 1.008 0.03 13.7097 5.7635 4.37268 161.257 -43.4188 -93.992 3 -1 -2 -0.0298244 0.000917424 0.0098891 -9.85686 -1.65479 9.92352 
3104 194 3 1.008 0.03 9.07054 4.52833 3.14756 107.435 53.7107 -144.399 2 1 -3 0.0165155 -0.00122378 -0.00780842 28.4835 -7.38214 -13.203 
6097 382 1 16 -0.4 11.2753 2.69437 3.80069 -87.0894 2.69437 -192.929 -2 0 -4 0.0010989 0.0121212 -0.00940105 -25.4421 7.61077 -34.728 
5887 368 3 1.008 0.03 11.7916 7.95045 1.54712 208.521 57.1328 -47.6352 4 1 -1 -0.0212286 0.00626541 0.0188711 -8.6302 17.0083 -9.21061 
4279 268 3 1.008 0.03 15.5038 7.13422 1.22102 163.051 -42.0481 -97.1437 3 -1 -2 -0.0270869 -0.00648647 -0.0149795 13.1706 -0.958337 -5.32265 
4275 268 2 12.01 0.14 15.7975 7.09335 2.25426 163.345 -42.089 -96.1104 3 -1 -2 -0.00319142 0.00955122 0.00235082 -22.0564 -17.2682 9.62072 
4280 268 3 1.008 0.03 15.4245 8.0147 2.59576 162.972 -41.1676 -95.7689 3 -1 -2 0.0110743 -0.02275 0.00621687 8.44845 31.9545 4.78608 
5878 368 2 12.01 0.11 12.3444 7.04409 1.48195 209.074 56.2264 -47.7004 4 1 -1 -0.000437869 0.00163432 -0.00724085 -8.6612 -15.637 47.6622 
4273 268 1 16 -0.4 14.9753 6.13441 2.92293 162.522 -43.0479 -95.4418 3 -1 -2 -0.00338881 0.00106366 -0.00130396 17.8228 -15.0469 -15.184 
6099 382 2 12.01 0.14 12.0725 2.33005 4.86178 -86.2922 2.33005 -191.868 -2 0 -4 0.00261266 -0.00928453 -0.00195629 21.1576 -15.8372 18.1628 
4879 305 3 1.008 0.03 11.1096 6.59968 4.95417 109.474 55.782 -44.2282 2 1 -1 0.0128101 -0.0147714 0.00476148 1.1854 15.5765 -1.63626 
4277 268 2 12.01 0.11 14.3577 6.57611 4.09456 161.905 -42.6062 -94.2701 3 -1 -2 -0.011066 -0.00587487 -0.000369196 -0.767895 8.90393 -19.9792 
6106 382 3 1.008 0.03 12.1108 4.12117 6.20671 -86.2539 4.12117 -190.523 -2 0 -4 -0.0119392 -0.00306977 -0.00854444 -13.4112 -27.8615 -6.19334 
4870 305 2 12.01 0.11 10.7632 7.65561 4.92727 109.128 56.838 -44.2551 2 1 -1 0.0035194 0.00702446 0.00293397 -23.1184 3.00538 26.9066 
4284 268 3 1.008 0.03 13.8052 7.47678 3.77309 161.352 -41.7056 -94.5916 3 -1 -2 -0.00565378 0.00217567 0.00544395 -1.95799 -6.12848 21.4394 
4283 268 3 1.008 0.03 15.0893 6.7714 4.85584 162.636 -42.4109 -93.5089 3 -1 -2 0.00982432 0.0102045 -0.00600842 5.10872 5.03908 10.1959 
5881 368 3 1.008 0.03 9.94385 6.38657 1.1985 206.673 55.5689 -47.9838 4 1 -1 -0.0118438 -0.0193064 -0.0150081 -11.6335 16.4876 -0.393885 
4878 305 3 1.008 0.03 10.3037 7.8873 5.94514 108.668 57.0697 -43.2372 2 1 -1 0.00898171 -0.0136846 0.00992902 18.6787 -6.38831 -27.7651 
6104 382 3 1.008 0.03 13.111 2.47529 4.57863 -85.2537 2.47529 -192.151 -2 0 -4 0.00393441 -0.010298 -0.00155023 3.42158 2.13036 1.24247 
4866 305 1 16 -0.4 9.7294 7.76991 3.95012 108.094 56.9523 -45.2322 2 1 -1 0.00478555 -0.000403467 0.00262231 16.1836 -18.8041 -3.58888 
6108 382 3 1.008 0.03 10.7245 2.25709 1.83052 -87.6402 2.25709 -194.899 -2 0 -4 0.00227808 0.00291531 -0.00265556 1.96353 6.58092 -2.64154 
5888 368 3 1.008 0.03 12.2551 6.64665 2.51662 208.984 55.829 -46.6657 4 1 -1 -0.00751755 -0.00607058 -0.0124872 -4.06153 -2.92787 -19.7672 
6100 382 2 12.01 0.14 11.7649 3.03842 6.19092 -86.5998 3.03842 -190.538 -2 0 -4 0.006458 -0.00217804 0.00187136 25.1368 21.2076 0.434546 
4880 305 3 1.008 0.03 11.5861 8.35977 4.7061 109.951 57.5421 -44.4762 2 1 -1 -0.042208 0.0255055 0.000600918 -7.90857 -10.3496 1.23001 
6098 382 1 16 -0.4 10.4021 2.86138 6.51969 -87.9626 2.86138 -190.21 -2 0 -4 -0.00203006 0.00654719 -0.00253272 11.0799 -8.72044 -4.02704 
6112 382 3 1.008 0.03 10.0553 4.76602 7.16438 -88.3094 4.76602 -189.565 -2 0 -4 -0.0183147 0.000239593 -0.01498 -2.32787 -2.57915 9.7518 
5886 368 3 1.008 0.03 13.3841 7.24162 1.38243 210.113 56.424 -47.7999 4 1 -1 -0.00257538 0.0234666 -0.00510273 7.775 7.7442 -12.168 
6105 382 3 1.008 0.03 12.3954 2.52092 6.93432 -85.9693 2.52092 -189.795 -2 0 -4 0.0164152 0.00901489 0.0236329 -8.19231 7.62102 -0.832675 
6109 382 3 1.008 0.03 12.4735 2.12552 2.17884 -85.8912 2.12552 -194.551 -2 0 -4 0.0284003 0.0142007 -0.000570764 -5.00588 -3.92555 -1.33628 
6101 382 2 12.01 0.11 11.4622 1.94689 2.56622 -86.9025 1.94689 -194.163 -2 0 -4 0.00189671 0.00412134 0.00031002 4.85124 36.0464 17.4806 
5876 368 2 12.01 0.14 10.5632 5.65089 0.740431 207.293 54.8332 -48.4419 4 1 -1 0.00200094 0.00115012 -0.00834232 12.5847 -27.4427 18.4922 
5874 368 1 16 -0.4 11.8801 6.13526 0.531949 208.61 55.3176 -48.6504 4 1 -1 -0.00661446 -0.00293867 0.00804704 -1.75903 -2.96382 -25.0768 
1531 96 3 1.008 0.03 18.0271 2.22433 0.890185 18.0271 51.4067 50.0725 0 1 1 0.00920623 -0.00750036 0.00421625 -4.92575 -8.76879 -34.7492 
9160 573 3 1.008 0.03 23.0147 2.52505 1.34783 23.0147 2.52505 1.34783 0 0 0 -0.000126493 0.0243793 -0.0023941 3.9435 -8.95374 -2.92662 
8942 559 3 1.008 0.03 16.9359 1.81713 3.92178 -32.2465 1.81713 3.92178 -1 0 0 0.00696613 -0.00871736 0.0233735 -1.65232 -10.9645 -0.280424 
8934 559 2 12.01 0.11 17.4021 0.828576 4.07366 -31.7803 0.828576 4.07366 -1 0 0 -0.000613334 -0.00106744 -0.00430385 -9.18319 8.83772 4.37297 
4276 268 2 12.01 0.14 17.2803 6.89764 2.52213 164.827 -42.2847 -95.8426 3 -1 -2 0.000236219 0.00959737 0.00160658 22.6127 11.0648 -50.7541 
8944 559 3 1.008 0.03 18.067 0.957335 4.93773 -31.1154 0.957335 4.93773 -1 0 0 0.0102569 -0.00364022 -0.0106931 -7.41146 -4.90902 1.57073 
4282 268 3 1.008 0.03 17.4282 7.00921 3.59267 164.975 -42.1731 -94.772 3 -1 -2 -0.00817408 0.0100114 -0.0397868 7.88948 -2.8228 3.02223 
4274 268 1 16 -0.4 17.7088 5.62623 1.92135 165.256 -43.5561 -96.4433 3 -1 -2 -0.00540752 -0.00288061 0.000730461 -21.1291 38.2236 23.195 
4288 268 3 1.008 0.03 18.8971 4.09821 2.22634 166.444 -45.0841 -96.1384 3 -1 -2 0.00288186 0.00428549 -0.00745074 -12.1467 -2.89148 16 
9155 573 2 12.01 0.14 22.0376 2.3842 1.79817 22.0376 2.3842 1.79817 0 0 0 0.00261926 -0.00788758 -0.003906 6.25918 -1.66138 -11.5268 
9168 573 3 1.008 0.03 21.0269 3.01681 5.79794 21.0269 3.01681 5.79794 0 0 0 0.0117543 0.00401719 -0.0226556 14.3496 13.7995 -9.11421 
9167 573 3 1.008 0.03 19.9281 4.20295 5.22241 19.9281 4.20295 5.22241 0 0 0 0.0085416 -0.00489671 -0.00418628 23.9271 -8.96682 -10.3998 
6129 384 1 16 -0.4 24.8984 0.78441 1.15845 -171.831 0.78441 148.706 -4 0 3 -0.00564648 0.00728337 -0.00372378 -1.30722 27.3468 16.051 
9154 573 1 16 -0.4 20.8929 3.10733 3.72531 20.8929 3.10733 3.72531 0 0 0 0.000355894 -0.00369081 0.000518333 -7.32034 13.8461 0.836554 
9158 573 2 12.01 0.11 20.9436 3.77086 4.98435 20.9436 3.77086 4.98435 0 0 0 -0.00434415 0.00310835 0.00116852 -51.723 -16.4545 15.9585 
9166 573 3 1.008 0.03 21.6075 4.61268 5.01461 21.6075 4.61268 5.01461 0 0 0 0.0134059 -0.0404295 -0.00191632 14.8785 4.36417 4.6117 
9156 573 2 12.01 0.14 22.1552 2.72574 3.23275 22.1552 2.72574 3.23275 0 0 0 8.50722e-05 0.00306842 0.000506457 -26.6346 -4.87878 21.8226 
9161 573 3 1.008 0.03 22.3298 1.83053 3.80383 22.3298 1.83053 3.80383 0 0 0 0.0119395 -0.00960123 0.00624424 19.6708 -5.08138 5.54251 
9162 573 3 1.008 0.03 22.8803 3.48902 3.36948 22.8803 3.48902 3.36948 0 0 0 0.0150249 0.0108362 -0.0313799 12.8886 11.8687 7.58028 
9157 573 2 12.01 0.11 21.6681 4.48819 0.813067 21.6681 4.48819 0.813067 0 0 0 0.0021292 0.0112191 -0.00774189 3.69817 48.3676 8.12302 
9159 573 3 1.008 0.03 21.7995 1.31952 1.76291 21.7995 1.31952 1.76291 0 0 0 -0.0151369 0.0167976 0.00891368 -6.59592 3.58644 -9.95854 
4278 268 2 12.01 0.11 18.4848 4.91526 2.84467 166.032 -44.2671 -95.52 3 -1 -2 0.000604306 -0.00190139 0.00189249 35.3539 -24.8698 6.80234 
4287 268 3 1.008 0.03 18.0325 4.55327 3.8156 165.58 -44.6291 -94.5491 3 -1 -2 -0.0234215 0.0160244 0.0301259 1.00114 7.43704 -28.6156 
9153 573 1 16 -0.4 21.1137 3.24557 1.14727 21.1137 3.24557 1.14727 0 0 0 0.0030298 0.000775755 -0.000365549 -6.99768 -18.8384 -14.1996 
721 46 1 16 -0.4 20.8583 7.54237 6.42134 20.8583 -140.005 6.42134 0 -3 0 0.00934823 -0.00187256 0.0018246 -16.5292 10.2505 20.29 
722 46 1 16 -0.4 23.5342 6.36632 6.48516 23.5342 -141.181 6.48516 0 -3 0 0.00391965 0.00366678 0.0126415 -4.49508 22.6771 13.7446 
652 41 3 1.008 0.03 24.5364 2.84859 7.32229 24.5364 2.84859 56.5046 0 0 1 0.00985159 -0.0229112 -0.00855495 6.70388 -3.46902 9.92095 
4286 268 3 1.008 0.03 19.4386 5.40372 3.1013 166.986 -43.7786 -95.2634 3 -1 -2 0.00616686 -0.0147613 -0.00945548 -12.6504 7.44423 -0.646882 
723 46 2 12.01 0.14 21.9498 8.14924 5.74467 21.9498 -139.398 5.74467 0 -3 0 0.00647763 0.00306734 -0.00795337 -15.861 -17.0557 -35.9857 
727 46 3 1.008 0.03 21.969 7.63418 4.74222 21.969 -139.913 4.74222 0 -3 0 -0.0344793 -0.0254539 0.00466629 -0.501745 17.0952 19.8809 
4281 268 3 1.008 0.03 17.8204 7.74333 1.94492 165.367 -41.439 -96.4198 3 -1 -2 0.0296424 -0.0135655 0.0164891 -16.4321 -32.2375 28.984 
729 46 3 1.008 0.03 23.9865 8.19966 5.77476 23.9865 -139.347 5.77476 0 -3 0 -0.00677897 -0.0245668 -0.00145656 11.0689 8.56467 0.884282 
724 46 2 12.01 0.14 23.2281 7.79258 6.4158 23.2281 -139.754 6.4158 0 -3 0 -0.00500687 -0.00140031 -0.0031533 16.3599 -30.4466 -10.0523 
5127 321 3 1.008 0.03 16.8739 1.40356 7.27566 16.8739 50.5859 7.27566 0 1 0 0.00904496 -0.0429119 -6.99268e-05 7.96316 2.09821 26.8125 
2777 174 3 1.008 0.03 22.4538 7.78758 2.27375 120.819 -90.5771 2.27375 2 -2 0 -0.00145071 -0.00882479 0.0103783 -3.40085 -13.5188 -11.5503 
9163 573 3 1.008 0.03 21.7387 5.12148 1.72984 21.7387 5.12148 1.72984 0 0 0 0.0219078 0.015759 0.0195532 -6.46568 -8.333 -15.2 
9164 573 3 1.008 0.03 22.681 4.48348 0.445709 22.681 4.48348 0.445709 0 0 0 0.0194221 -0.0273595 -0.004931 8.46346 -10.6969 -3.57899 
8930 559 1 16 -0.4 18.1337 0.499249 2.93343 -31.0487 0.499249 2.93343 -1 0 0 0.00100461 -0.00129531 -0.00553078 13.8722 -1.04906 -10.7135 
730 46 3 1.008 0.03 23.2479 8.29338 7.35214 23.2479 -139.254 7.35214 0 -3 0 -0.0159685 -0.0204659 0.0197423 4.15303 6.95827 19.141 
725 46 2 12.01 0.11 20.1683 8.35527 7.40931 20.1683 -139.192 7.40931 0 -3 0 0.00239138 0.00592837 -0.00408812 15.9409 -34.7267 -23.1719 
2170 136 3 1.008 0.03 0.45767 12.022 1.38372 98.8224 12.022 1.38372 2 0 0 -0.00142991 0.0172929 0.00462633 13.2798 -2.8197 43.2229 
5016 314 3 1.008 0.03 0.698181 9.1363 1.33781 99.0629 9.1363 99.7025 2 0 2 0.0085639 0.0097225 -0.00324863 16.1841 12.8924 15.4821 
6298 394 3 1.008 0.03 0.993461 11.8884 7.14304 99.3582 61.0708 105.508 2 1 2 -0.020426 -0.0327818 -0.000483307 8.44854 -7.36727 4.57403 
4872 305 3 1.008 0.03 8.53391 8.89583 1.75996 106.899 58.0782 -47.4224 2 1 -1 -0.0132896 0.0333519 0.0031388 7.34647 -9.20618 19.751 
4867 305 2 12.01 0.14 8.04951 8.87973 2.75778 106.414 58.0621 -46.4246 2 1 -1 0.00298431 -0.00594672 -0.00189645 -19.7777 22.9246 -5.11299 
2169 136 3 1.008 0.03 0.428034 10.9945 2.92328 98.7927 10.9945 2.92328 2 0 0 -0.000559315 0.0217596 -0.0231865 0.793735 14.0044 -13.3516 
2164 136 2 12.01 0.14 0.753711 11.9759 2.50279 99.1184 11.9759 2.50279 2 0 0 -0.00241178 0.00264574 0.000614062 12.0145 -25.2907 -22.1627 
6704 419 3 1.008 0.03 2.14116 9.82453 5.71719 2.14116 9.82453 -43.4652 0 0 -1 -0.0119665 -0.0341251 -0.0124412 30.1227 2.93209 -18.978 
4876 305 3 1.008 0.03 5.57524 9.3287 3.4385 103.94 58.511 -45.7438 2 1 -1 -0.00138097 -0.000725523 0.00526766 -11.0058 0.958838 9.92155 
6694 419 2 12.01 0.11 3.20097 10.0316 5.34576 3.20097 10.0316 -43.8366 0 0 -1 -0.00256418 0.00107506 0.00134195 -40.4481 -19.3384 63.6855 
2166 136 2 12.01 0.11 3.00832 12.0278 1.60866 101.373 12.0278 1.60866 2 0 0 0.00686297 0.00190168 0.000354239 -39.5609 9.00462 4.26891 
6702 419 3 1.008 0.03 3.46214 10.9107 5.92262 3.46214 10.9107 -43.2597 0 0 -1 -0.0134108 0.0138449 -0.00911935 7.07549 5.25658 -2.59252 
2175 136 3 1.008 0.03 4.01114 11.9833 1.91943 102.376 11.9833 1.91943 2 0 0 -0.000553648 0.0219911 -0.0338314 26.2591 -8.86891 0.94148 
2162 136 1 16 -0.4 2.18452 11.9414 2.76826 100.549 11.9414 2.76826 2 0 0 -0.0070428 -0.00508459 0.00366034 -18.2085 2.14443 -8.20579 
720 45 3 1.008 0.03 5.54492 13.21 3.20323 5.54492 -85.1547 3.20323 0 -2 0 -0.0139218 0.0113081 0.00627482 5.13277 17.0653 -9.97502 
718 45 3 1.008 0.03 5.80325 14.9132 3.58689 5.80325 -83.4515 3.58689 0 -2 0 -0.0105482 0.0143225 0.00124248 -2.4764 10.216 9.30104 
710 45 2 12.01 0.11 5.7415 14.2215 2.77282 5.7415 -84.1432 2.77282 0 -2 0 0.00604769 0.000625923 0.00462474 -10.4146 -20.6088 -0.724259 
719 45 3 1.008 0.03 4.95185 14.5132 2.08805 4.95185 -83.8515 2.08805 0 -2 0 0.024726 0.0220121 -0.0140372 -11.4673 0.319027 6.63696 
6690 419 1 16 -0.4 4.05056 8.95472 5.72801 4.05056 8.95472 -43.4543 0 0 -1 -0.000932458 -0.0022083 0.00215359 5.75248 7.97551 -4.97793 
4875 305 3 1.008 0.03 5.71557 11.0879 3.67024 104.08 60.2702 -45.5121 2 1 -1 -0.0113963 -0.0062265 -0.00565247 -12.3429 13.4126 -10.2057 
706 45 1 16 -0.4 6.90067 14.3274 2.00986 6.90067 -84.0373 2.00986 0 -2 0 -0.00486822 0.00784922 0.00225381 20.7215 26.1363 34.4685 
708 45 2 12.01 0.14 6.9652 13.4256 1.0043 6.9652 -84.9391 1.0043 0 -2 0 -0.00391341 -0.00477018 -0.00408089 4.07723 -34.5311 -66.9564 
714 45 3 1.008 0.03 7.03139 12.3931 1.38383 7.03139 -85.9716 1.38383 0 -2 0 -0.00210731 0.0265785 -0.00564747 1.50352 7.41085 -2.49784 
6703 419 3 1.008 0.03 3.21208 10.2647 4.33467 3.21208 10.2647 -44.8477 0 0 -1 -0.0159844 -0.0147948 -0.00954881 1.11165 4.72028 -34.7151 
4869 305 2 12.01 0.11 6.23047 10.161 3.67142 104.595 59.3433 -45.5109 2 1 -1 0.00214784 -0.00355699 -0.00070484 20.4422 -17.6412 -3.55047 
3656 229 3 1.008 0.03 8.15138 14.2948 4.89966 8.15138 63.4772 4.89966 0 1 0 0.0250594 -0.0251195 -0.00921224 -8.7118 -10.7009 -14.8193 
3266 205 1 16 -0.4 6.86014 13.0084 7.18758 -42.3222 13.0084 56.3699 -1 0 1 0.00195983 0.000230205 0.00207267 -33.0603 14.5276 -2.87329 
3660 229 3 1.008 0.03 7.8257 16.2057 7.29363 7.8257 65.388 7.29363 0 1 0 -0.0270831 -0.0244877 0.0292023 -34.4916 -5.2977 -31.2362 
4865 305 1 16 -0.4 7.25347 10.0584 2.68983 105.618 59.2408 -46.4925 2 1 -1 0.00659894 -0.000520471 -0.00281644 5.03761 13.1085 2.69108 
4877 305 3 1.008 0.03 6.6364 10.1198 4.67751 105.001 59.3021 -44.5048 2 1 -1 -0.0474579 -0.00809837 0.0131708 -3.06037 -6.17593 2.68444 
3273 205 3 1.008 0.03 8.08192 11.803 6.33093 -41.1004 11.803 55.5133 -1 0 1 0.0109819 0.0266815 -0.0033963 7.59738 -5.3151 -6.08602 
4874 305 3 1.008 0.03 8.21242 8.71991 4.88852 106.577 57.9023 -44.2938 2 1 -1 -0.00652645 -0.0125328 0.013439 11.4746 1.8904 0.294297 
3649 229 1 16 -0.4 8.31961 16.3543 5.31401 8.31961 65.5366 5.31401 0 1 0 0.00360742 0.000630715 -0.0070407 -8.44998 -20.6086 4.69296 
3653 229 2 12.01 0.11 7.2649 16.1571 6.28507 7.2649 65.3395 6.28507 0 1 0 0.000846924 -0.00265591 0.00159685 50.7223 19.8495 26.1696 
3659 229 3 1.008 0.03 6.70928 15.2632 6.14981 6.70928 64.4456 6.14981 0 1 0 -0.00421426 -0.0182383 0.00409712 -6.37033 -20.1513 2.50555 
2176 136 3 1.008 0.03 2.73958 11.3109 0.826434 101.104 11.3109 0.826434 2 0 0 -0.0079191 0.00693865 0.0159331 5.7687 -2.6428 4.37449 
2174 136 3 1.008 0.03 2.85787 13.0162 1.2082 101.223 13.0162 1.2082 2 0 0 0.00731801 0.0081029 0.00428379 0.340099 7.56333 -6.99043 
3792 237 3 1.008 0.03 7.87811 16.7297 2.69376 7.87811 65.912 2.69376 0 1 0 0.022 -0.0144411 -0.00102267 6.29862 -3.26218 -10.5542 
6299 394 3 1.008 0.03 2.02366 16.255 6.64091 100.388 65.4374 105.006 2 1 2 -0.00496081 0.00614323 -0.011237 2.44972 7.73544 -9.60055 
2167 136 3 1.008 0.03 0.409595 13.1418 4.34701 98.7743 13.1418 4.34701 2 0 0 0.0217009 -0.0104448 7.60325e-05 2.16586 -8.9325 1.79833 
2172 136 3 1.008 0.03 0.543926 15.3027 4.38554 98.9086 15.3027 4.38554 2 0 0 0.0159488 -0.0068336 -0.010589 26.8108 9.60181 2.68362 
6289 394 1 16 -0.4 1.6278 14.2957 7.21558 99.9925 63.478 105.58 2 1 2 0.00657002 0.00734663 0.00165667 7.43094 16.01 10.2771 
3268 205 2 12.01 0.14 7.66062 11.8781 7.31984 -41.5217 11.8781 56.5022 -1 0 1 0.000994239 0.000873298 0.00203831 -6.10833 20.7044 -31.3662 
4868 305 2 12.01 0.14 8.91116 8.8934 4.05693 107.276 58.0757 -45.1254 2 1 -1 0.00102828 0.0004557 0.000318133 -29.1145 -39.6201 -8.73474 
3651 229 2 12.01 0.14 8.88047 15.0235 5.17801 8.88047 64.2059 5.17801 0 1 0 0.000144231 -0.00331315 -0.000601361 37.3814 14.0947 -6.03984 
4873 305 3 1.008 0.03 9.49272 9.72727 4.28452 107.857 58.9096 -44.8978 2 1 -1 0.0225372 -0.0130869 0.00988885 13.5483 33.614 -3.90994 
4956 310 3 1.008 0.03 13.595 14.2045 1.39323 62.7773 14.2045 1.39323 1 0 0 0.00806629 0.00704591 -0.016734 -9.74834 7.92438 0.851138 
8613 539 2 12.01 0.11 10.6338 11.1848 1.43151 108.998 11.1848 1.43151 2 0 0 -0.00787649 -0.00188292 -0.0045825 -6.63783 35.6634 -29.6136 
4957 310 3 1.008 0.03 14.3683 12.7267 1.88002 63.5506 12.7267 1.88002 1 0 0 0.017985 0.00642098 -0.0126496 7.8132 19.2155 -6.11948 
9637 604 4 14.01 -0.66 14.1186 11.5556 4.78883 14.1186 60.738 4.78883 0 1 0 -0.00287234 0.00358887 0.00341317 -13.312 1.90215 -2.70836 
9645 604 5 32.06 1.02 12.7637 11.9588 5.46494 12.7637 61.1411 5.46494 0 1 0 -0.00254671 -0.000282273 -0.00504153 3.77142 16.9931 15.1605 
9638 604 5 32.06 1.02 15.5553 11.9483 5.18589 15.5553 61.1306 5.18589 0 1 0 -0.000745268 0.00263205 -0.00379036 11.1344 44.0075 0.129812 
9644 604 8 19 -0.16 16.3855 10.308 3.3547 16.3855 59.4904 3.3547 0 1 0 -0.00498293 -0.00445755 0.00388268 18.5791 -1.86048 10.866 
9646 604 6 16 -0.53 11.6643 11.6689 4.58822 11.6643 60.8512 4.58822 0 1 0 -0.00408475 0.000752509 -0.00617202 -13.7408 7.97984 1.77329 
9639 604 6 16 -0.53 16.0996 13.0035 4.32236 16.0996 62.1859 4.32236 0 1 0 0.00625328 0.00173385 -5.84382e-05 -6.23432 -33.8099 19.8592 
4949 310 2 12.01 0.11 14.5451 13.8241 1.72395 63.7275 13.8241 1.72395 1 0 0 0.00670015 0.00572079 -0.00193467 -0.415779 -27.309 13.421 
4955 310 3 1.008 0.03 14.7405 14.2284 2.73436 63.9228 14.2284 2.73436 1 0 0 0.0284018 -0.0095897 0.0388368 -1.76119 3.30938 -17.3874 
3655 229 3 1.008 0.03 9.2262 14.6343 6.15481 9.2262 63.8167 6.15481 0 1 0 0.01166 0.005856 0.0179507 3.09237 8.96208 -9.6199 
3657 229 3 1.008 0.03 10.8717 14.441 4.38351 10.8717 63.6233 4.38351 0 1 0 0.00110218 -0.0104934 0.0142016 -0.0374375 -20.5459 2.59612 
712 45 3 1.008 0.03 9.0672 13.612 0.552571 9.0672 -84.7527 0.552571 0 -2 0 -0.00459238 -0.000945287 -0.0229159 7.73255 -1.65209 3.97008 
9642 604 8 19 -0.16 15.9766 9.31564 5.19018 15.9766 58.498 5.19018 0 1 0 0.00596296 -0.00194469 -0.00026896 -3.96809 6.91947 2.04909 
9641 604 7 12.01 0.35 16.46 10.4456 4.68417 16.46 59.6279 4.68417 0 1 0 0.00230952 -0.00196661 -0.00541942 -45.9245 -3.11502 -8.10125 
8620 539 3 1.008 0.03 10.211 10.187 1.39014 108.576 10.187 1.39014 2 0 0 -0.00808568 -0.00860064 -0.0206917 3.01863 -2.044 -10.4138 
3652 229 2 12.01 0.14 10.0787 15.1217 4.14999 10.0787 64.304 4.14999 0 1 0 -0.0019667 -0.00210845 -0.00485276 -9.15936 26.7597 44.4737 
3658 229 3 1.008 0.03 9.76782 14.9458 3.14393 9.76782 64.1281 3.14393 0 1 0 -3.1936e-05 -0.0107013 -0.00733634 -4.1806 2.95722 -16.7209 
8619 539 3 1.008 0.03 9.78378 11.8326 1.73463 108.148 11.8326 1.73463 2 0 0 -0.017473 -0.00151721 -0.0103142 14.8545 -10.5104 8.50902 
8621 539 3 1.008 0.03 11.4203 11.1333 2.20388 109.785 11.1333 2.20388 2 0 0 -0.0153794 0.0149238 -0.0169606 -4.63827 7.76121 -13.1625 
3663 229 3 1.008 0.03 12.6011 15.739 4.13375 12.6011 64.9213 4.13375 0 1 0 0.000272948 -0.0170592 -8.55029e-05 -10.1048 14.5635 -15.0035 
9649 604 8 19 -0.16 12.7612 9.50186 6.04443 12.7612 58.6842 6.04443 0 1 0 0.00677875 -0.00463458 0.00123361 2.3545 -8.77172 10.9686 
3654 229 2 12.01 0.11 11.9164 16.5643 3.80056 11.9164 65.7467 3.80056 0 1 0 -0.000435173 -0.00103465 -0.00745429 2.24737 -10.142 14.923 
3664 229 3 1.008 0.03 11.7472 16.6551 2.71208 11.7472 65.8374 2.71208 0 1 0 0.00294805 -0.0179075 -0.0135504 11.9078 -1.72387 8.38891 
3650 229 1 16 -0.4 10.6569 16.4306 4.40909 10.6569 65.613 4.40909 0 1 0 0.000985746 -0.00870844 -0.000310124 -19.6771 -11.4023 -4.11582 
4945 310 1 16 -0.4 15.5568 14.0928 0.736921 64.7391 14.0928 0.736921 1 0 0 -0.00278929 0.00413609 0.0056121 -10.1855 6.44294 2.61281 
9647 604 6 16 -0.53 12.7096 13.1729 6.27849 12.7096 62.3553 6.27849 0 1 0 0.00780035 -0.00444042 -0.00505273 1.79627 -12.9734 -22.2759 
9648 604 7 12.01 0.35 12.6304 10.6432 6.69312 12.6304 59.8256 6.69312 0 1 0 -0.00388056 -0.00269612 0.00253223 -23.7574 -8.32142 -0.171169 
9640 604 6 16 -0.53 15.7837 12.0959 6.60836 15.7837 61.2782 6.60836 0 1 0 -0.000555142 -0.00603312 -0.00365538 3.342 -10.4915 -7.77573 
10153 638 8 19 -0.16 15.2034 15.3721 5.59986 15.2034 15.3721 54.7822 0 0 1 -0.00501683 -0.00484595 0.00347895 7.66657 -10.8301 -5.35163 
10151 638 7 12.01 0.35 15.6299 16.3131 4.77823 15.6299 16.3131 53.9606 0 0 1 0.00173998 -0.00374891 -0.00376554 59.0255 22.9483 49.7408 
10154 638 8 19 -0.16 14.8009 16.4191 3.84337 14.8009 16.4191 53.0257 0 0 1 -0.00479661 -1.57641e-06 0.00315789 -44.8656 6.72131 -44.0138 
9651 604 8 19 -0.16 11.4104 10.5965 7.32334 11.4104 59.7789 7.32334 0 1 0 0.000823034 -5.80527e-05 0.000585516 43.5568 4.5516 -10.9152 
2779 174 3 1.008 0.03 24.1222 12.1466 4.53768 122.487 -86.2181 4.53768 2 -2 0 0.0192816 -0.013687 0.00131041 8.57821 -18.8548 -12.4879 
3239 203 3 1.008 0.03 23.8881 13.8578 2.11318 73.0704 63.0401 100.478 1 1 2 -0.0173209 -0.00513442 0.00997543 2.00374 39.2563 -33.4147 
2770 174 1 16 -0.4 22.3797 9.15143 0.645839 120.744 -89.2133 0.645839 2 -2 0 0.00270131 0.00590673 0.00140532 -21.8531 40.2164 4.529 
2773 174 2 12.01 0.11 24.4246 11.3645 3.78738 122.789 -87.0001 3.78738 2 -2 0 -0.00373835 0.00422961 0.00436059 -0.525783 15.3594 16.843 
7800 488 3 1.008 0.03 20.6022 16.151 1.43077 69.7845 16.151 1.43077 1 0 0 -0.0192596 -0.0200086 -0.000267518 15.2497 6.94398 14.7499 
2775 174 3 1.008 0.03 24.331 9.61436 2.06382 122.696 -88.7503 2.06382 2 -2 0 0.0383135 0.0201673 -0.004989 32.3748 4.9526 -24.2913 
7795 488 2 12.01 0.14 19.9345 15.6445 0.782997 69.1169 15.6445 0.782997 1 0 0 0.00550185 0.00151022 0.00192947 -29.2473 17.2852 -28.5199 
2769 174 1 16 -0.4 23.2684 10.5693 3.51816 121.633 -87.7954 3.51816 2 -2 0 -0.000432522 -0.00204357 0.00783269 -3.24836 23.7682 -4.74954 
10454 665 9 24.305 2 17.0313 15.3703 0.88537 66.2137 15.3703 0.88537 1 0 0 -0.00563093 0.000800503 -0.00158737 -15.6103 -9.65855 -2.38483 
9643 604 8 19 -0.16 17.6721 10.5198 5.09895 17.6721 59.7022 5.09895 0 1 0 0.000609204 0.00550373 0.00116829 39.6963 -3.49416 -6.61867 
7808 488 3 1.008 0.03 16.9599 12.2554 1.14282 66.1422 12.2554 1.14282 1 0 0 0.00535513 -0.00720397 -0.0158361 5.7137 3.14124 2.51253 
7160 448 3 1.008 0.03 22.4525 14.9064 4.47029 22.4525 -34.2759 53.6526 0 -1 1 -0.00611716 -0.0250626 0.00875795 -11.2678 4.60619 7.96871 
7162 448 3 1.008 0.03 20.0223 14.0788 5.93981 20.0223 -35.1035 55.1222 0 -1 1 0.00310435 -0.0293361 -0.0140005 -41.2509 0.426713 22.3721 
7794 488 1 16 -0.4 18.2775 13.8814 1.08789 67.4598 13.8814 1.08789 1 0 0 0.00548676 -0.00260116 0.00108553 6.89799 22.172 -15.4571 
2772 174 2 12.01 0.14 22.3797 8.83707 2.04943 120.744 -89.5276 2.04943 2 -2 0 -0.000305972 -0.00862153 -0.0046425 -0.593388 9.9277 -8.28655 