ITEM: TIMESTEP
2850000
ITEM: NUMBER OF ATOMS
10479
ITEM: BOX BOUNDS pp pp pp
4.0882558190751794e-01 4.9591174418091420e+01
4.0882558190751794e-01 4.9591174418091420e+01
4.0882558190751794e-01 4.9591174418091420e+01
ITEM: ATOMS id mol type mass q x y z xu yu zu ix iy iz vx vy vz fx fy fz 
10461 672 9 24.305 2 4.53982 6.14833 4.60599 4.53982 6.14833 53.7883 0 0 1 -7.88778e-05 -0.00287753 0.00102083 4.55444 25.1718 -7.8112 
7922 496 1 16 -0.4 5.99069 7.49954 5.19437 5.99069 7.49954 54.3767 0 0 1 0.00148215 -0.00294769 0.0039034 -3.97025 30.3103 13.009 
7921 496 1 16 -0.4 3.53818 7.25247 5.87091 3.53818 7.25247 55.0533 0 0 1 -0.000813251 -0.00155387 0.00386626 33.3322 -27.1108 -23.6677 
2242 141 1 16 -0.4 3.10201 5.06847 3.88495 3.10201 5.06847 53.0673 0 0 1 0.000801717 0.003711 0.00220106 3.52715 16.175 4.43267 
2246 141 2 12.01 0.11 2.94248 3.76361 4.38855 2.94248 3.76361 53.5709 0 0 1 -0.00236 0.00464817 -0.0023609 -15.7243 -40.6079 -34.0632 
2256 141 3 1.008 0.03 3.45937 3.51597 5.28503 3.45937 3.51597 54.4674 0 0 1 -0.0278801 -0.0184387 0.0135158 9.20255 1.64254 13.1268 
2255 141 3 1.008 0.03 3.19027 2.96135 3.6405 3.19027 2.96135 52.8228 0 0 1 0.00129423 -0.0193886 0.00809786 0.668082 21.2338 13.6644 
962 61 1 16 -0.4 5.77084 4.99635 3.74736 5.77084 4.99635 52.9297 0 0 1 -0.00204348 -0.00274499 -0.00238565 9.19795 -20.7766 -24.9678 
10127 636 6 16 -0.53 4.47017 7.61738 3.07955 4.47017 7.61738 52.2619 0 0 1 -0.00573458 -0.000626679 -0.000752745 -14.1806 10.4339 -17.1276 
2244 141 2 12.01 0.14 1.96542 5.41808 3.06977 1.96542 5.41808 52.2521 0 0 1 -0.00675203 -0.0124802 -0.00635904 44.2034 -10.2365 -14.9957 
2243 141 2 12.01 0.14 2.10677 4.83171 1.63089 2.10677 4.83171 50.8132 0 0 1 -0.00329543 0.00117427 -0.00286709 1.89962 -39.8897 13.1259 
2249 141 3 1.008 0.03 1.99794 6.46269 2.98663 1.99794 6.46269 52.169 0 0 1 -0.021266 0.00675817 0.000131579 -2.72079 28.1132 -4.49305 
970 61 3 1.008 0.03 5.84522 3.03751 4.42546 5.84522 3.03751 53.6078 0 0 1 0.00203426 0.0153966 0.0130891 -7.68707 -5.35673 8.35909 
964 61 2 12.01 0.14 6.35164 3.98754 4.53828 6.35164 3.98754 53.7206 0 0 1 0.00158265 -0.0030164 -0.00318246 1.89547 16.8749 -12.0891 
969 61 3 1.008 0.03 7.36018 3.80856 4.27433 7.36018 3.80856 53.4567 0 0 1 0.00315085 0.00573939 -0.0201924 22.4941 -5.21398 -5.6848 
966 61 2 12.01 0.11 5.9212 4.43475 2.42998 5.9212 4.43475 51.6123 0 0 1 -0.00863233 0.000976191 -0.00433399 -14.6683 37.4963 -5.70078 
974 61 3 1.008 0.03 6.90222 4.10813 2.18995 6.90222 4.10813 51.3723 0 0 1 -0.00895099 0.0060425 0.0185925 20.0686 -9.3847 -1.35944 
2241 141 1 16 -0.4 3.17695 5.49389 1.00971 3.17695 5.49389 50.1921 0 0 1 -0.00411668 -0.00176172 0.00274294 3.73479 24.4681 0.0912784 
976 61 3 1.008 0.03 5.79194 5.24633 1.70748 5.79194 5.24633 50.8898 0 0 1 -0.0280255 0.00032432 -0.0129156 -9.50447 -5.15156 0.0917312 
975 61 3 1.008 0.03 5.23227 3.61873 2.24912 5.23227 3.61873 51.4315 0 0 1 -0.00272414 0.0125288 0.0224333 -5.41993 -2.57145 -4.73017 
7926 496 2 12.01 0.11 7.29399 7.83963 4.68942 7.29399 7.83963 53.8718 0 0 1 -0.00255797 0.00563339 0.00229295 -25.1124 -55.5863 -1.89831 
10119 636 6 16 -0.53 7.45966 7.73795 1.34836 7.45966 7.73795 50.5307 0 0 1 0.00287611 -0.00243017 0.00597104 -33.2413 4.96791 0.453817 
7925 496 2 12.01 0.11 2.17044 7.19124 6.08365 2.17044 7.19124 55.266 0 0 1 0.00282399 0.00646103 0.00533084 -28.4362 7.19483 40.2467 
10131 636 8 19 -0.16 2.21376 8.26744 1.14791 2.21376 8.26744 50.3303 0 0 1 -4.18929e-05 0.000519297 -0.00192912 20.6883 30.9777 14.6847 
7936 496 3 1.008 0.03 7.45465 7.15705 3.87045 7.45465 7.15705 53.0528 0 0 1 -0.00257176 0.00204231 -0.0114142 -0.923826 1.57221 -10.2692 
7923 496 2 12.01 0.14 4.13382 8.44904 6.32313 4.13382 8.44904 55.5055 0 0 1 -0.000678178 -0.0103606 -0.00267957 -29.2551 37.3117 -5.68232 
7924 496 2 12.01 0.14 5.64219 8.43057 6.27025 5.64219 8.43057 55.4526 0 0 1 0.00123923 -0.00193784 -0.00409355 12.8342 -34.4072 -25.136 
7935 496 3 1.008 0.03 8.03412 7.44503 5.33362 8.03412 7.44503 54.516 0 0 1 0.00346743 -0.0131757 -0.0154304 19.7406 9.50498 20.3474 
963 61 2 12.01 0.14 6.37139 4.56461 5.8831 6.37139 4.56461 55.0655 0 0 1 0.00499648 -0.00148936 -0.000203272 -10.6574 -8.7106 71.5321 
961 61 1 16 -0.4 5.02341 5.08835 6.1353 5.02341 5.08835 55.3176 0 0 1 0.00448429 0.000650836 -0.00246478 27.5289 -12.4324 -4.51154 
2248 141 3 1.008 0.03 2.38545 3.73827 1.63609 2.38545 3.73827 50.8184 0 0 1 0.0232103 -0.0249851 0.0012538 -12.5552 23.8064 1.73426 
7931 496 3 1.008 0.03 1.69015 6.30007 5.73475 1.69015 6.30007 54.9171 0 0 1 -0.00154727 -0.0136433 -0.0234392 3.1401 -12.7851 -7.32674 
968 61 3 1.008 0.03 6.64484 3.62557 6.49232 6.64484 3.62557 55.6747 0 0 1 0.00608999 -0.0195684 -0.0216272 -8.80919 39.8309 -10.6533 
2254 141 3 1.008 0.03 1.88911 3.58548 4.56001 1.88911 3.58548 53.7424 0 0 1 0.000588791 -0.00402525 0.00867304 12.2019 2.85333 14.9749 
967 61 3 1.008 0.03 7.06554 5.41734 6.16341 7.06554 5.41734 55.3458 0 0 1 -0.0147642 0.00254939 -0.0194443 -7.33896 -29.0018 -18.2126 
7930 496 3 1.008 0.03 6.16221 8.01991 7.11874 6.16221 8.01991 56.3011 0 0 1 -0.00453706 0.00208127 0.0133173 -4.93172 -0.12629 15.7695 
8545 535 1 16 -0.4 7.57202 1.1321 2.51613 56.7544 99.4968 100.881 1 2 2 0.00261051 -0.0019884 0.0039802 21.6725 -24.6557 -25.4274 
9586 600 6 16 -0.53 2.88087 1.32733 6.82493 -46.3015 1.32733 6.82493 -1 0 0 -0.00040388 -0.00718405 0.00141311 11.1494 10.3927 -48.1905 
7933 496 3 1.008 0.03 1.59934 8.01124 5.62768 1.59934 8.01124 54.81 0 0 1 -0.0205874 -0.0213964 0.00464069 5.65669 1.36643 6.42403 
2247 141 3 1.008 0.03 1.16493 4.93064 1.10118 1.16493 4.93064 50.2835 0 0 1 -0.00685439 -0.00220693 -0.00421612 -1.10277 3.98579 -5.27149 
2250 141 3 1.008 0.03 1.08642 5.25372 3.61891 1.08642 5.25372 52.8013 0 0 1 9.62609e-05 -0.0209958 0.0130796 -29.6902 -11.2394 0.725053 
8550 535 2 12.01 0.11 3.46643 0.702779 1.28395 52.6488 99.0675 99.6486 1 2 2 0.00730749 0.00379525 -0.00126411 7.86252 8.41612 -15.7538 
8546 535 1 16 -0.4 4.89446 0.707803 1.30621 54.0768 99.0725 99.6709 1 2 2 0.000204698 -0.00559851 0.00581036 -15.2895 -5.07627 -1.16565 
8554 535 3 1.008 0.03 5.04092 0.967805 3.28222 54.2233 99.3325 101.647 1 2 2 0.0205057 -0.00820183 0.0127511 17.0188 -20.5204 -11.86 
7932 496 3 1.008 0.03 2.04343 7.11884 7.19925 2.04343 7.11884 56.3816 0 0 1 0.013558 0.00636069 -0.0189288 -4.52656 9.13128 -23.2091 
8558 535 3 1.008 0.03 2.98423 1.19121 2.15591 52.1666 99.5559 100.521 1 2 2 0.0255242 -0.000835656 -0.00573245 5.18484 -1.70937 -13.1655 
7722 483 3 1.008 0.03 0.729266 1.92301 4.20702 0.729266 100.288 -143.34 0 2 -3 0.0230868 0.00647479 0.0165485 -12.2231 -8.80085 -5.72529 
10118 636 5 32.06 1.02 6.46129 8.27337 0.42439 6.46129 8.27337 49.6067 0 0 1 -0.000484721 0.000743881 -0.00124564 28.8608 -11.0361 -7.54786 
8556 535 3 1.008 0.03 9.66935 1.38135 2.01776 58.8517 99.746 100.382 1 2 2 -0.00444627 0.00902236 0.0412014 3.73712 24.4121 9.69332 
4687 293 3 1.008 0.03 9.14838 5.57345 1.95422 -40.034 54.7558 51.1366 -1 1 1 -0.000521912 0.0175525 -0.00693249 -7.23753 -7.18237 -3.3364 
4674 293 1 16 -0.4 9.4854 5.15944 3.99515 -39.697 54.3418 53.1775 -1 1 1 -0.00387887 -0.00599562 0.00225606 -7.56685 26.1432 -60.6756 
4678 293 2 12.01 0.11 9.93526 5.68504 2.68165 -39.2471 54.8674 51.864 -1 1 1 -0.00205871 -0.00622107 -0.00173869 -17.1359 -6.45394 21.0417 
4688 293 3 1.008 0.03 10.0322 6.77436 2.71179 -39.1501 55.9567 51.8941 -1 1 1 -0.000613131 0.00448394 0.0364977 7.72662 -5.1604 2.98212 
8097 507 1 16 -0.4 12.3731 7.72068 3.33475 61.5555 7.72068 101.699 1 0 2 0.00283784 0.00330972 -0.000865171 -2.58098 13.3497 0.330595 
4686 293 3 1.008 0.03 10.8302 5.20654 2.23307 -38.3521 54.3889 51.4154 -1 1 1 -0.0151298 -0.00567727 -0.0231386 -7.53205 5.34351 9.72162 
9648 604 7 12.01 0.35 12.7763 2.53996 1.9718 12.7763 51.7223 1.9718 0 1 0 -0.000675831 -0.0106247 -0.00141123 -13.2804 13.4758 9.664 
8099 507 2 12.01 0.14 13.7433 8.03494 3.19708 62.9256 8.03494 101.562 1 0 2 0.00537532 -0.00368289 -0.00402598 40.6106 -10.5649 -59.2717 
8106 507 3 1.008 0.03 14.3087 5.89489 3.40956 63.4911 5.89489 101.774 1 0 2 0.0158177 -0.0118379 0.00388296 2.78233 17.8866 -23.8632 
8100 507 2 12.01 0.14 14.5739 6.76955 2.74051 63.7563 6.76955 101.105 1 0 2 0.00331169 0.00271839 0.000644877 -58.9495 -9.39094 40.788 
9650 604 8 19 -0.16 12.1575 2.83257 0.837074 12.1575 52.0149 0.837074 0 1 0 -0.00148019 0.000224232 -0.00121516 6.61394 -6.15769 -5.65224 
9649 604 8 19 -0.16 13.1781 3.72718 2.46175 13.1781 52.9095 2.46175 0 1 0 0.00411999 0.00404033 0.00160957 -2.831 -19.2887 -3.58599 
4681 293 3 1.008 0.03 11.1618 5.96215 4.78812 -38.0205 55.1445 53.9705 -1 1 1 0.00772776 -0.00495978 -0.000568578 7.16407 3.51376 6.57404 
4676 293 2 12.01 0.14 10.5769 5.05415 4.80175 -38.6054 54.2365 53.9841 -1 1 1 -0.00704705 -0.00299805 -0.00456301 -7.51926 -5.49201 11.5693 
9646 604 6 16 -0.53 15.0982 2.14298 1.0565 15.0982 51.3253 1.0565 0 1 0 -0.0027322 0.00482376 0.00641883 5.77443 0.445655 -4.93423 
4682 293 3 1.008 0.03 11.0777 4.27279 4.30409 -38.1046 53.4551 53.4864 -1 1 1 -0.0244284 -0.00723978 0.00476545 25.2624 -18.5153 -1.5803 
8098 507 1 16 -0.4 14.2505 6.60489 1.38603 63.4328 6.60489 99.7507 1 0 2 -0.00386862 0.0015109 0.00159542 -3.45766 12.6714 -7.65831 
4675 293 2 12.01 0.14 10.0642 4.58611 6.15668 -39.1181 53.7685 55.339 -1 1 1 0.000612711 0.00376816 -0.00169107 -1.91367 -6.73773 6.05325 
8549 535 2 12.01 0.11 8.95398 0.701032 2.42653 58.1363 99.0657 100.791 1 2 2 0.00440208 -1.7344e-05 -0.00437974 -29.6988 12.3065 6.86071 
8105 507 3 1.008 0.03 15.5954 6.88939 2.90907 64.7778 6.88939 101.274 1 0 2 0.0298903 0.0342115 0.00148086 32.6741 11.8912 1.10672 
9645 604 5 32.06 1.02 14.1695 1.3378 1.7931 14.1695 50.5202 1.7931 0 1 0 -0.00589092 0.00310929 0.00350626 31.7562 8.52346 29.1611 
9651 604 8 19 -0.16 11.8174 2.11536 2.78041 11.8174 51.2977 2.78041 0 1 0 -0.00277003 0.00177596 0.00165641 4.08764 -4.86005 2.66382 
316 20 3 1.008 0.03 14.0747 3.6245 6.1098 -35.1076 -143.923 104.474 -1 -3 2 0.0154812 -0.006718 0.00769635 -45.4398 10.6448 35.131 
8111 507 3 1.008 0.03 15.0161 4.92247 0.812248 64.1985 4.92247 99.1769 1 0 2 -0.00134298 -0.00584214 0.00933846 5.65538 -23.074 -0.493052 
309 20 2 12.01 0.11 14.8966 3.41231 5.57277 -34.2858 -144.135 103.937 -1 -3 2 0.000148734 0.00197865 0.00505647 62.3965 40.8553 -39.2317 
317 20 3 1.008 0.03 14.528 3.23984 4.56503 -34.6544 -144.307 102.93 -1 -3 2 -0.00701827 -0.00887592 -0.0178225 6.37038 -1.81458 -3.43801 
305 20 1 16 -0.4 15.8346 4.54138 5.65633 -33.3477 -143.006 104.021 -1 -3 2 -0.00181041 0.00679232 -0.00169895 -31.6291 -11.1736 6.26729 
9647 604 6 16 -0.53 14.5587 0.959859 3.14816 14.5587 50.1422 3.14816 0 1 0 -0.0108002 -0.00281983 0.0022093 -11.4205 12.6226 -14.4371 
8102 507 2 12.01 0.11 15.2225 5.94523 0.632335 64.4049 5.94523 98.997 1 0 2 -0.000431901 0.00545909 0.000119022 18.3791 5.60781 43.331 
422 27 2 12.01 0.11 9.74968 0.500424 6.19734 9.74968 49.6828 55.3797 0 1 1 -0.0109819 0.000297763 -0.00169484 2.91239 -12.8713 25.4142 
315 20 3 1.008 0.03 15.3748 2.57011 5.97525 -33.8076 -144.977 104.34 -1 -3 2 0.0168932 -0.0122901 -0.0216689 7.43049 -27.1588 6.83631 
8110 507 3 1.008 0.03 16.2768 6.19699 0.891688 65.4592 6.19699 99.2564 1 0 2 0.00142948 0.00224766 0.000137326 -16.2251 -1.31737 -3.09748 
4683 293 3 1.008 0.03 11.0217 7.29102 6.64823 -38.1606 56.4734 55.8306 -1 1 1 -0.0200264 -0.0187398 -0.0258546 -4.34041 -28.0664 15.0407 
8104 507 3 1.008 0.03 14.1455 8.3442 4.11201 63.3278 8.3442 102.477 1 0 2 -0.0147381 -0.00387224 -0.00166762 7.16396 11.1264 28.2091 
430 27 3 1.008 0.03 10.1111 0.878564 5.23782 10.1111 50.0609 54.4202 0 1 1 -0.0183834 -0.00339625 -0.00140727 0.123765 -3.3155 3.39579 
4673 293 1 16 -0.4 9.59008 5.69162 6.87679 -39.5923 54.874 56.0591 -1 1 1 0.00130186 -0.00218127 0.00422234 -26.0522 27.7429 16.9375 
4679 293 3 1.008 0.03 10.84 4.07001 6.71118 -38.3423 53.2524 55.8935 -1 1 1 -0.00778628 0.0289527 0.01815 3.28809 -0.520166 3.33428 
4680 293 3 1.008 0.03 9.19124 3.8868 6.0753 -39.9911 53.0691 55.2576 -1 1 1 -0.0158731 0.00149571 -0.0303276 20.4487 10.5871 -3.35308 
4011 251 3 1.008 0.03 14.6719 6.30219 7.3341 63.8542 55.4845 154.881 1 1 3 0.0101728 0.00947641 -0.0211307 -3.3865 -9.93585 18.4181 
418 27 1 16 -0.4 9.44872 1.58533 7.06781 9.44872 50.7677 56.2502 0 1 1 -0.00196966 0.00666593 0.000537127 8.23688 0.783445 2.95855 
4677 293 2 12.01 0.11 10.4616 6.696 7.42904 -38.7207 55.8783 56.6114 -1 1 1 -0.00338253 -0.000119401 0.000291614 13.6235 18.8692 -35.2712 
6294 394 2 12.01 0.11 24.4346 2.25878 0.8479 73.617 51.4411 148.395 1 1 3 0.00583295 0.00374764 0.00226383 25.7817 30.6096 14.6704 
10141 637 6 16 -0.53 21.3276 0.759847 4.58903 -27.8547 49.9422 4.58903 -1 1 0 0.00527774 -0.00248878 -0.000191525 4.78547 48.0432 27.5681 
10144 637 8 19 -0.16 19.6491 2.65591 6.51558 -29.5333 51.8383 6.51558 -1 1 0 0.0016606 -0.0051052 -0.002113 -10.241 -8.45665 24.1404 
310 20 2 12.01 0.11 19.3045 7.00159 3.90798 -29.8778 -140.545 102.273 -1 -3 2 -0.00295716 -8.38834e-05 0.00131091 36.2146 -25.8872 -19.3209 
5268 330 2 12.01 0.14 23.3121 8.32493 5.31445 72.4945 -40.8574 -43.8679 1 -1 -1 -0.00173501 0.00126935 -0.0049322 14.4064 8.75278 -36.5389 
5273 330 3 1.008 0.03 22.4481 7.92638 5.75983 71.6304 -41.256 -43.4225 1 -1 -1 -0.0167876 -0.0154883 0.00183016 -20.0546 -11.3436 16.9091 
311 20 3 1.008 0.03 17.7461 3.5968 5.44594 -31.4362 -143.95 103.811 -1 -3 2 0.025201 0.00236021 0.0118098 -32.1087 2.27658 -6.88145 
318 20 3 1.008 0.03 19.8591 7.13222 2.93773 -29.3232 -140.415 101.302 -1 -3 2 -0.00118893 -0.00949826 -0.00230067 -20.6294 -2.49173 15.4799 
306 20 1 16 -0.4 18.6716 5.72265 4.01578 -30.5107 -141.824 102.38 -1 -3 2 -0.00187554 0.00141903 0.0061652 -3.78954 23.3777 21.9342 
5280 330 3 1.008 0.03 24.6142 5.49515 4.3454 73.7966 -43.6872 -44.837 1 -1 -1 -0.0180876 0.00808201 -0.0110196 -7.13679 0.0450529 5.7588 
307 20 2 12.01 0.14 17.0843 4.39714 5.02057 -32.0981 -143.15 103.385 -1 -3 2 0.00666986 0.00209639 -0.00437909 39.8679 -26.5323 17.9158 
312 20 3 1.008 0.03 17.0086 4.17237 3.95026 -32.1737 -143.375 102.315 -1 -3 2 0.0114185 -0.0113255 0.0146176 -6.84545 2.70555 2.8853 
308 20 2 12.01 0.14 18.0379 5.56255 5.31781 -31.1445 -141.984 103.683 -1 -3 2 -0.00624323 -0.00389867 -0.0048091 35.2374 -23.9223 -57.7163 
10145 637 8 19 -0.16 20.9578 4.21689 6.07787 -28.2245 53.3992 6.07787 -1 1 0 -0.00247844 0.00209381 -0.00136584 -3.97962 -0.311762 -14.3577 
10146 637 8 19 -0.16 19.7324 3.1485 4.5422 -29.4499 52.3308 4.5422 -1 1 0 0.00904955 0.00435921 0.00353575 35.3396 11.114 10.2178 
10143 637 7 12.01 0.35 20.5225 3.03748 5.63773 -28.6598 52.2198 5.63773 -1 1 0 0.0062248 0.010665 0.00195297 -34.0609 18.401 -24.6253 
10140 637 5 32.06 1.02 21.8195 1.82757 5.49798 -27.3628 51.0099 5.49798 -1 1 0 -0.00401772 -0.000509177 -0.00683909 18.7338 -93.5912 -42.7343 
10132 637 4 14.01 -0.66 21.7421 1.21427 6.92891 -27.4402 50.3966 6.92891 -1 1 0 0.00235436 0.000205542 0.0100466 5.14931 4.58092 -10.5611 
5278 330 3 1.008 0.03 22.9083 5.81682 4.87337 72.0906 -43.3655 -44.309 1 -1 -1 0.00690483 -0.0185251 0.0028982 4.2044 -1.04095 2.49297 
10142 637 6 16 -0.53 23.0701 2.44556 5.081 -26.1123 51.6279 5.081 -1 1 0 -0.00296366 -0.00813158 0.00121729 -19.835 10.8478 12.4248 
320 20 3 1.008 0.03 20.0683 7.22851 4.65239 -29.1141 -140.319 103.017 -1 -3 2 -0.0041113 -0.000876897 -0.0262706 -3.21458 -8.18727 6.31552 
8279 518 3 1.008 0.03 21.9617 0.573692 2.09544 21.9617 49.756 2.09544 0 1 0 0.0107789 0.000470062 -0.00750208 3.60116 -3.46962 -2.75147 
313 20 3 1.008 0.03 17.5948 6.42679 5.72031 -31.5875 -141.12 104.085 -1 -3 2 0.0114028 -0.00918988 0.0109261 -16.1544 21.9968 6.3554 
8281 518 3 1.008 0.03 19.9678 1.18469 2.26018 19.9678 50.367 2.26018 0 1 0 -0.0184022 -0.0170299 -0.0257225 -11.2373 -7.80529 14.7719 
6304 394 3 1.008 0.03 24.2937 2.48677 1.93185 73.476 51.6691 149.479 1 1 3 0.00671958 -0.0204006 0.0129984 2.70017 1.23557 -18.5401 
319 20 3 1.008 0.03 18.5427 7.69127 4.04723 -30.6396 -139.856 102.412 -1 -3 2 0.00694542 0.00915871 0.00777592 -21.4067 32.6382 -4.53976 
314 20 3 1.008 0.03 18.9322 5.31053 5.89413 -30.2502 -142.237 104.259 -1 -3 2 0.0258806 -0.00503961 -0.0206452 -11.502 -2.66379 12.7109 
1103 69 3 1.008 0.03 17.2565 3.12473 0.64502 66.4388 3.12473 -97.7197 1 0 -2 0.00245914 -0.0186679 0.00145636 7.00599 14.1123 -6.38533 
6299 394 3 1.008 0.03 23.8702 5.24128 0.522504 73.0525 54.4236 148.07 1 1 3 0.000225225 0.00032298 -0.0135273 14.3889 -2.95143 1.24115 
1102 69 3 1.008 0.03 18.2097 4.48613 1.13536 67.3921 4.48613 -97.2293 1 0 -2 -0.00121306 0.0113604 -0.00787854 5.87016 -0.704273 -2.62667 
8282 518 3 1.008 0.03 19.6333 0.483622 0.728934 19.6333 49.666 0.728934 0 1 0 -0.0035841 -0.00713521 -0.00740352 1.74219 -15.2768 39.2995 
5279 330 3 1.008 0.03 23.6249 6.57776 3.43913 72.8072 -42.6046 -45.7432 1 -1 -1 -0.0110577 0.0203775 -0.00959156 -3.71243 -0.912148 1.13303 
5266 330 1 16 -0.4 24.3426 7.34193 5.18215 73.5249 -41.8404 -44.0002 1 -1 -1 -0.00669419 -0.000903075 -0.000592945 -20.2054 6.30177 -8.21633 
5270 330 2 12.01 0.11 23.8251 6.2509 4.46192 73.0075 -42.9314 -44.7204 1 -1 -1 0.00187837 0.00108874 0.00406177 13.177 -8.10922 -19.0085 
6302 394 3 1.008 0.03 24.5739 1.20122 0.895454 73.7563 50.3836 148.443 1 1 3 -0.00208032 0.00127601 -0.00701929 -8.18468 -16.9733 -12.6435 
7934 496 3 1.008 0.03 7.45041 8.80855 4.31918 7.45041 8.80855 53.5015 0 0 1 0.0278045 -0.0144291 0.012277 4.25219 29.1042 -3.30693 
4491 281 3 1.008 0.03 7.83526 14.3407 0.624295 106.2 -34.8417 148.171 2 -1 3 -0.0151283 0.017054 -0.0158856 0.827283 -2.11225 13.2175 
3782 237 2 12.01 0.11 0.412519 12.5341 0.682924 0.412519 61.7165 0.682924 0 1 0 0.00237687 0.00430917 -0.00132928 21.2648 -46.876 27.5772 
3778 237 1 16 -0.4 0.669484 13.8569 0.647575 0.669484 63.0393 0.647575 0 1 0 0.00035069 -0.00159906 9.92201e-05 22.0568 55.1933 -5.29531 
3664 229 3 1.008 0.03 1.13772 16.5345 3.51987 1.13772 65.7169 3.51987 0 1 0 0.0155174 0.0129168 0.00214481 6.72661 9.91406 -5.08645 
6488 406 3 1.008 0.03 0.917628 16.2333 7.29318 0.917628 -32.9491 56.4755 0 -1 1 -0.0134636 0.0288568 -0.0099906 3.63099 0.23669 0.232813 
10125 636 5 32.06 1.02 4.52461 8.85417 2.27069 4.52461 8.85417 51.453 0 0 1 -0.000530513 0.00244543 -0.000516202 -29.3639 19.0799 87.9225 
10117 636 4 14.01 -0.66 5.07093 8.72964 0.901947 5.07093 8.72964 50.0843 0 0 1 0.000853508 0.00255824 -0.00678922 15.3328 10.8095 -28.4298 
3786 237 3 1.008 0.03 2.56296 13.7128 1.76399 2.56296 62.8951 1.76399 0 1 0 0.0166637 -0.0150653 0.00231395 -10.8574 -7.46376 12.688 
3777 237 1 16 -0.4 1.39529 16.3915 1.07166 1.39529 65.5739 1.07166 0 1 0 0.00322903 0.00292062 0.00234085 -55.0347 43.1935 5.10344 
10128 636 7 12.01 0.35 2.7921 9.27702 1.85968 2.7921 9.27702 51.042 0 0 1 0.0107296 0.00742293 -0.0045033 -6.22241 -52.9103 -56.3535 
7929 496 3 1.008 0.03 5.96809 9.45492 6.16294 5.96809 9.45492 55.3453 0 0 1 0.0110284 -0.0050105 -0.00203893 8.53178 5.24868 -6.54445 
3784 237 3 1.008 0.03 3.18267 15.8476 1.6312 3.18267 65.0299 1.6312 0 1 0 0.0258395 0.0167125 -0.00754358 1.44542 0.125725 -18.0184 
10129 636 8 19 -0.16 2.02184 9.36792 2.89991 2.02184 9.36792 52.0823 0 0 1 0.00279609 0.00102714 0.00285468 -8.1527 17.6194 22.6363 
8331 521 3 1.008 0.03 2.81669 13.5332 6.63078 101.181 62.7155 55.8131 2 1 1 0.0143209 0.00383986 -0.00840242 -24.4166 -0.484676 5.98372 
8333 521 3 1.008 0.03 4.51436 13.1717 6.59249 102.879 62.3541 55.7748 2 1 1 0.0105355 -0.0227212 0.00235454 -21.7276 19.288 -18.8105 
7927 496 3 1.008 0.03 3.81341 9.20675 5.55563 3.81341 9.20675 54.738 0 0 1 -0.0104867 -0.0246724 0.0101022 3.49785 -11.0316 20.8451 
8325 521 2 12.01 0.11 3.62489 13.4553 5.95636 101.99 62.6376 55.1387 2 1 1 -0.00235131 -0.000860878 0.00599748 44.7103 -64.8164 49.935 
8328 521 3 1.008 0.03 3.90813 15.6548 7.06791 102.273 64.8372 56.2503 2 1 1 -0.0196467 0.0175737 0.0239577 2.02701 13.0246 -28.6985 
8321 521 1 16 -0.4 3.93633 14.5242 5.28342 102.301 63.7065 54.4658 2 1 1 -0.00060883 0.00300863 0.00288528 10.6774 70.0889 -37.2267 
10126 636 6 16 -0.53 4.79785 10.0915 2.98308 4.79785 10.0915 52.1654 0 0 1 0.00140718 0.000226566 0.00686053 19.2003 -19.1969 -8.54176 
7303 457 3 1.008 0.03 8.00131 11.3022 4.23571 8.00131 109.667 4.23571 0 2 0 -0.0142369 0.00608351 -0.0164762 -0.748724 2.79586 -5.40109 
8323 521 2 12.01 0.14 3.63121 15.7432 5.97172 101.996 64.9255 55.1541 2 1 1 0.000766144 0.00238493 0.0039097 -20.1914 0.88178 26.1672 
7306 457 3 1.008 0.03 8.58379 12.986 2.54323 8.58379 111.351 2.54323 0 2 0 3.98405e-06 0.0200158 -0.00348238 21.9285 1.28225 45.2337 
8327 521 3 1.008 0.03 2.53223 15.8711 6.00948 100.897 65.0534 55.1918 2 1 1 0.00625401 0.0179528 -0.0365646 14.5603 -9.32938 -3.03135 
8332 521 3 1.008 0.03 3.5619 12.6219 5.28893 101.927 61.8042 54.4713 2 1 1 0.00662533 0.0021783 0.00760504 -10.6205 -10.0666 -8.55092 
10384 653 8 19 -0.16 1.90071 11.1434 6.1291 1.90071 11.1434 6.1291 0 0 0 0.00440884 0.00416265 -0.00296635 -43.5265 4.54082 10.2458 
8322 521 1 16 -0.4 4.32091 16.5764 3.85936 102.686 65.7587 53.0417 2 1 1 -0.00328506 -0.00210431 -0.00792943 -10.1108 14.3479 16.2196 
10130 636 8 19 -0.16 2.72438 10.4 1.11576 2.72438 10.4 50.2981 0 0 1 -0.00292764 0.00127528 -0.00259253 -9.49034 -14.3183 16.0648 
3779 237 2 12.01 0.14 2.48956 15.6621 0.784503 2.48956 64.8444 0.784503 0 1 0 0.00579503 0.00696906 0.00761038 12.8278 -69.6889 54.3211 
3780 237 2 12.01 0.14 2.07977 14.1226 0.888575 2.07977 63.305 0.888575 0 1 0 0.00219433 0.00288864 0.000449107 38.8276 40.9613 -39.362 
7304 457 3 1.008 0.03 8.42614 12.4055 5.49457 8.42614 110.77 5.49457 0 2 0 0.00477775 0.0165486 -0.00463124 4.7477 0.438449 -5.43976 
7311 457 3 1.008 0.03 7.77751 15.9221 4.08236 7.77751 114.287 4.08236 0 2 0 -0.00404436 -0.0046556 0.0146451 -4.83362 -28.2937 6.47496 
7312 457 3 1.008 0.03 7.01727 14.3035 3.66159 7.01727 112.668 3.66159 0 2 0 0.0264599 -0.00129977 0.00995025 5.11354 4.91917 0.773167 
7302 457 2 12.01 0.11 7.78974 14.8043 4.26436 7.78974 113.169 4.26436 0 2 0 -0.00396629 -0.00461754 -0.000333361 37.5066 12.2213 -12.0894 
7310 457 3 1.008 0.03 7.59894 14.5982 5.31046 7.59894 112.963 5.31046 0 2 0 -0.000680799 -0.00967821 0.00368453 -8.22448 2.17667 2.29896 
7928 496 3 1.008 0.03 3.75147 8.78169 7.30856 3.75147 8.78169 56.4909 0 0 1 -0.0105919 -0.0141278 0.0225175 4.84298 -5.7105 -9.34447 
3792 237 3 1.008 0.03 0.788014 12.3084 1.68691 0.788014 61.4908 1.68691 0 1 0 0.000552645 -0.00824349 -0.00293925 -6.79291 -16.7418 -3.69711 
3654 229 2 12.01 0.11 0.64713 15.6567 3.8837 0.64713 64.8391 3.8837 0 1 0 -0.00414633 -0.00884244 0.00181973 -29.6408 7.75966 -30.0831 
3663 229 3 1.008 0.03 1.39482 14.9707 4.11502 1.39482 64.1531 4.11502 0 1 0 -0.0116587 0.016389 0.0085577 20.6393 -22.7382 19.4234 
10124 636 8 19 -0.16 7.71577 10.4721 0.940166 7.71577 10.4721 50.1225 0 0 1 -0.000743958 -0.00705123 -0.000209495 11.3113 25.4306 29.1265 
10383 653 7 12.01 0.35 0.53456 11.1863 6.26256 0.53456 11.1863 6.26256 0 0 0 0.0106318 0.00132353 -0.00225092 49.3972 -32.7275 -34.316 
8109 507 3 1.008 0.03 12.0586 9.5792 4.29264 61.241 9.5792 102.657 1 0 2 -0.0163433 0.00173068 0.0135131 4.37622 -4.19836 8.72305 
8101 507 2 12.01 0.11 11.6331 8.92056 3.54499 60.8154 8.92056 101.91 1 0 2 0.00103338 -0.00615518 -0.00656007 -21.3277 -17.8697 28.3752 
8103 507 3 1.008 0.03 14.0119 8.84208 2.42848 63.1943 8.84208 100.793 1 0 2 0.0157675 -0.0136103 -0.000548071 -19.7083 -23.5285 28.7332 
8108 507 3 1.008 0.03 10.5869 8.68194 3.87721 59.7692 8.68194 102.242 1 0 2 0.0107023 0.00269972 -0.0117423 20.4444 5.08208 -9.62116 
7307 457 3 1.008 0.03 10.6642 9.86838 6.38917 10.6642 108.233 6.38917 0 2 0 -0.00329716 -0.010361 -0.00365272 6.43845 -11.9994 1.44631 
714 45 3 1.008 0.03 11.4568 10.2239 0.53272 11.4568 -88.1408 0.53272 0 -2 0 0.00836701 0.000543351 -0.00621594 -4.44492 -6.73169 4.72185 
8107 507 3 1.008 0.03 11.6094 9.54104 2.70058 60.7918 9.54104 101.065 1 0 2 0.0132383 0.0206422 -0.0069257 -4.12928 9.92527 -27.1232 
716 45 3 1.008 0.03 15.8422 11.4012 1.58224 15.8422 -86.9635 1.58224 0 -2 0 0.0158048 0.00469387 0.0183896 -2.72297 -7.47125 5.99188 
7299 457 2 12.01 0.14 8.81752 11.9366 4.5802 8.81752 110.301 4.5802 0 2 0 0.00202316 -0.00395099 0.0053255 7.73088 16.04 -12.8506 
7300 457 2 12.01 0.14 9.24082 13.0475 3.50175 9.24082 111.412 3.50175 0 2 0 -0.00313402 0.00535292 -0.00208684 -72.3244 -40.9181 -25.3007 
7298 457 1 16 -0.4 9.16312 14.3399 4.01155 9.16312 112.705 4.01155 0 2 0 7.07375e-05 0.00933808 0.00268184 -27.3427 27.5238 5.66355 
7305 457 3 1.008 0.03 10.1684 12.8513 3.06634 10.1684 111.216 3.06634 0 2 0 -0.00572022 -0.0213175 -0.00544671 33.8477 -4.78372 -2.40159 
7301 457 2 12.01 0.11 9.81833 10.4941 6.18665 9.81833 108.859 6.18665 0 2 0 -0.00352661 -0.00479115 -0.00386544 -6.89782 8.70011 -27.4215 
709 45 2 12.01 0.11 15.4416 10.7722 0.785289 15.4416 -87.5925 0.785289 0 -2 0 -0.00276921 0.00367845 -0.000420441 -10.9225 -20.8159 0.826248 
7806 488 3 1.008 0.03 13.5106 13.724 3.40262 62.6929 13.724 3.40262 1 0 0 -0.00475593 -0.0176533 -0.0250481 6.28488 -0.746611 -3.42389 
7798 488 2 12.01 0.11 14.3423 14.2967 2.96633 63.5246 14.2967 2.96633 1 0 0 0.00273436 0.00721286 0.000341891 -0.713349 30.7332 -6.30247 
7808 488 3 1.008 0.03 14.7391 13.7939 2.05423 63.9215 13.7939 2.05423 1 0 0 0.0174575 -0.00694592 0.000902461 -1.92814 2.34546 18.05 
7807 488 3 1.008 0.03 13.8516 15.2431 2.59161 63.0339 15.2431 2.59161 1 0 0 0.00366076 -0.0125997 0.0024623 14.6207 -23.5318 7.7496 
7794 488 1 16 -0.4 15.3494 14.6664 3.97055 64.5317 14.6664 3.97055 1 0 0 0.00788125 0.00653718 -0.00116077 -2.03524 -39.9747 4.40288 
7802 488 3 1.008 0.03 14.9827 12.7711 4.78701 64.1651 12.7711 4.78701 1 0 0 -0.0028851 -0.00636289 0.00230969 -10.4235 -22.3712 -4.7916 
7796 488 2 12.01 0.14 15.7816 13.4638 4.71355 64.9639 13.4638 4.71355 1 0 0 -0.00476479 8.30397e-06 -0.000209924 21.451 44.6085 -1.55749 
705 45 1 16 -0.4 13.9981 10.6897 0.796937 13.9981 -87.675 0.796937 0 -2 0 -0.00586106 0.00182716 0.00960481 18.4332 7.71934 18.366 
7297 457 1 16 -0.4 9.91038 11.0669 4.87526 9.91038 109.432 4.87526 0 2 0 0.0014539 -0.00588534 0.00876169 0.626691 5.05051 11.7717 
10454 665 9 24.305 2 16.2031 16.2995 4.72938 65.3855 16.2995 4.72938 1 0 0 -0.00283466 0.000961697 0.00102867 -6.81283 11.2827 -15.11 
10148 638 5 32.06 1.02 12.9214 16.5498 5.77156 12.9214 16.5498 54.9539 0 0 1 -0.00235208 0.00554753 -0.00326101 -3.26624 38.9201 8.4217 
10150 638 6 16 -0.53 12.3383 15.2462 5.83432 12.3383 15.2462 55.0167 0 0 1 -0.00476751 -0.00640018 -0.000495038 -3.5032 -12.4345 -6.29656 
4490 281 3 1.008 0.03 12.2013 16.2273 0.88774 110.566 -32.955 148.435 2 -1 3 0.0244094 -0.012943 0.00199936 1.58998 -1.80709 -1.98866 
7793 488 1 16 -0.4 16.6233 15.2034 6.19896 65.8056 15.2034 6.19896 1 0 0 -0.00435246 -0.00151659 -0.00241899 -0.590799 -2.58988 21.8472 
7801 488 3 1.008 0.03 16.7003 13.0211 4.23622 65.8827 13.0211 4.23622 1 0 0 0.0013772 -0.0222073 -0.00504054 -22.1386 5.25395 8.54039 
717 45 3 1.008 0.03 15.9077 9.76258 0.743408 15.9077 -88.6021 0.743408 0 -2 0 -0.00872944 0.012126 0.00348659 -5.54052 13.343 9.06015 
1832 115 3 1.008 0.03 13.7822 9.64878 7.0325 -35.4001 9.64878 -140.515 -1 0 -3 0.0126979 0.00531938 0.00165616 3.68348 15.7935 -4.08943 
7308 457 3 1.008 0.03 9.80255 11.2466 6.92924 9.80255 109.611 6.92924 0 2 0 -0.0014366 -0.0211163 -0.017035 2.42514 17.3704 14.8824 
4951 310 3 1.008 0.03 16.7455 16.4371 1.00351 65.9279 16.4371 1.00351 1 0 0 0.0210384 0.00216929 0.0109739 -5.32246 10.6712 20.4836 
7795 488 2 12.01 0.14 16.063 13.8897 6.1938 65.2453 13.8897 6.1938 1 0 0 0.000141424 0.00306854 -0.00394037 -4.45658 -23.5052 -8.76834 
1826 115 1 16 -0.4 16.2985 10.5169 6.32887 -32.8838 10.5169 -141.218 -1 0 -3 0.00319789 -0.000817477 0.00174886 -15.2674 16.1016 -0.758567 
10149 638 6 16 -0.53 14.3255 16.6416 5.38754 14.3255 16.6416 54.5699 0 0 1 -0.000793524 0.00423539 -0.00590591 -3.57745 -0.516299 -3.48752 
2895 181 3 1.008 0.03 8.74218 15.1929 7.08346 8.74218 15.1929 -42.0989 0 0 -1 -0.00433006 0.00609107 0.0156677 -4.67481 -2.63128 10.1134 
4484 281 2 12.01 0.14 11.2519 16.5473 0.46357 109.617 -32.6351 148.011 2 -1 3 0.000587423 -0.00548716 -0.00326193 -1.7571 6.91134 29.8127 
1837 115 3 1.008 0.03 12.3757 11.7069 6.66429 -36.8066 11.7069 -140.883 -1 0 -3 0.0239556 0.03481 0.0287122 -6.29615 5.44836 -22.8887 
7800 488 3 1.008 0.03 15.1627 13.7205 6.82443 64.345 13.7205 6.82443 1 0 0 0.00503363 -0.00382129 -0.00821151 9.16942 15.6791 -8.40972 
2896 181 3 1.008 0.03 9.49982 16.7049 7.0826 9.49982 16.7049 -42.0998 0 0 -1 0.0334864 0.0010311 -0.0148528 9.00708 3.65055 -1.15573 
7799 488 3 1.008 0.03 16.7709 13.1754 6.60346 65.9532 13.1754 6.60346 1 0 0 -0.0283642 0.00640808 0.00573772 4.95829 0.237437 1.61935 
4487 281 3 1.008 0.03 10.3605 14.5956 0.983582 108.725 -34.5867 148.531 2 -1 3 0.00568032 -0.0111488 -0.000798134 -0.372578 -25.8186 32.6178 
7309 457 3 1.008 0.03 8.88343 9.97807 6.29452 8.88343 108.343 6.29452 0 2 0 0.012041 0.0116831 -0.00022519 -6.35196 -13.1616 1.14034 
2111 132 3 1.008 0.03 23.1064 13.5388 6.47239 -26.076 -84.8259 55.6547 -1 -2 1 -0.014807 -0.0399458 0.00350446 -24.8352 -4.15344 -3.00795 
2110 132 3 1.008 0.03 24.6266 12.793 5.80414 -24.5558 -85.5717 54.9865 -1 -2 1 0.0289649 0.00634737 -0.00162135 -18.7977 16.2796 19.5775 
2112 132 3 1.008 0.03 24.4876 14.5284 6.13532 -24.6947 -83.8363 55.3177 -1 -2 1 -0.0225656 -0.0176294 0.0146167 -4.92239 5.46383 -6.86695 
10114 635 8 19 -0.16 24.577 9.1733 0.611694 122.942 58.3557 0.611694 2 1 0 -0.00216656 0.00192986 0.00528912 30.7808 -3.0544 -5.70411 
10110 635 5 32.06 1.02 23.1298 11.3977 0.932396 121.494 60.58 0.932396 2 1 0 -0.00181225 -0.000334236 0.000909894 -11.9536 -59.0428 35.4853 
5267 330 2 12.01 0.14 23.8997 9.42529 6.16849 73.0821 -39.7571 -43.0139 1 -1 -1 -0.00650379 0.00442497 0.00378432 1.0464 13.1645 -30.5674 
1840 115 3 1.008 0.03 18.2147 10.8923 6.8933 -30.9676 10.8923 -140.654 -1 0 -3 -0.00546322 -0.00309958 -0.0265643 12.2863 16.5904 23.4769 