ITEM: TIMESTEP
4550000
ITEM: NUMBER OF ATOMS
10479
ITEM: BOX BOUNDS pp pp pp
4.0882558190751794e-01 4.9591174418091420e+01
4.0882558190751794e-01 4.9591174418091420e+01
4.0882558190751794e-01 4.9591174418091420e+01
ITEM: ATOMS id mol type mass q x y z xu yu zu ix iy iz vx vy vz fx fy fz 
3267 205 2 12.01 0.14 5.26287 7.01087 6.31804 5.26287 56.1932 104.683 0 1 2 0.00104017 0.00352242 0.00909689 -36.3762 -1.56715 -15.3787 
3271 205 3 1.008 0.03 4.41216 6.37389 6.51098 4.41216 55.5562 104.876 0 1 2 -0.0083441 -0.0214992 -0.0335395 -3.00187 -7.92974 3.98003 
3265 205 1 16 -0.4 6.21517 6.33749 5.53563 6.21517 55.5198 103.9 0 1 2 0.002005 0.00106824 -0.0041304 19.8084 10.13 -8.73978 
3269 205 2 12.01 0.11 5.66673 5.6233 4.46328 5.66673 54.8056 102.828 0 1 2 0.000781085 0.00427719 -0.00313092 -17.3486 -3.86664 -22.5599 
3277 205 3 1.008 0.03 5.04614 4.79067 4.82569 5.04614 53.973 103.19 0 1 2 -0.0098384 -0.0116636 -0.00193382 0.183925 6.38285 -5.56355 
3276 205 3 1.008 0.03 6.32291 5.24472 3.68664 6.32291 54.4271 102.051 0 1 2 0.00750557 -0.0163064 -0.000951076 18.6215 -1.56908 19.1964 
3275 205 3 1.008 0.03 5.13066 6.29622 3.80041 5.13066 55.4786 102.165 0 1 2 0.00276724 -0.0121967 -0.00194524 -13.0948 1.84959 8.7363 
8148 510 2 12.01 0.14 2.03492 1.7297 3.18779 2.03492 50.912 3.18779 0 1 0 -0.00269634 0.000701174 -0.00338414 13.0803 39.2643 -32.8711 
8146 510 1 16 -0.4 1.37027 2.4444 4.18884 1.37027 51.6268 4.18884 0 1 0 -0.00629147 -0.000508878 -0.00158471 -16.3084 5.86779 5.58702 
8154 510 3 1.008 0.03 2.99923 2.2819 3.0979 2.99923 51.4642 3.0979 0 1 0 -0.0239104 -0.0190557 -0.00317394 -3.25205 -25.5935 2.15879 
8153 510 3 1.008 0.03 2.06498 0.720866 3.53763 2.06498 49.9032 3.53763 0 1 0 0.00698303 0.0343615 0.00253873 13.5598 -15.4811 0.628784 
1423 89 3 1.008 0.03 3.86918 8.30295 2.02598 -45.3132 57.4853 51.2083 -1 1 1 0.013323 -0.0251112 -0.00821691 28.2574 21.807 8.67501 
8160 510 3 1.008 0.03 3.10027 3.35534 5.04106 3.10027 52.5377 5.04106 0 1 0 0.0218262 -0.0308717 -0.00404483 -24.8138 -31.9101 9.76214 
8150 510 2 12.01 0.11 2.17914 2.73321 5.33056 2.17914 51.9156 5.33056 0 1 0 0.000483705 0.0050044 -0.0039276 24.5775 34.3629 -16.0718 
1413 89 2 12.01 0.11 6.70939 2.93782 1.80954 -42.473 52.1202 50.9919 -1 1 1 0.00672141 -0.00249753 -0.00700877 -18.4389 2.35233 17.7519 
8152 510 3 1.008 0.03 1.99615 1.17531 1.1512 1.99615 50.3577 1.1512 0 1 0 -0.0148292 -0.0118347 -0.0101005 14.1922 -16.8269 -25.9675 
1422 89 3 1.008 0.03 2.84352 7.05205 2.38916 -46.3388 56.2344 51.5715 -1 1 1 0.0100719 -0.00164727 0.00596718 5.74896 -4.31366 -12.3459 
8147 510 2 12.01 0.14 1.42689 1.82962 1.72985 1.42689 51.012 1.72985 0 1 0 0.00104583 -0.0031449 0.00299635 -8.52147 16.5064 60.5725 
1414 89 2 12.01 0.11 3.53613 7.40955 1.60318 -45.6462 56.5919 50.7855 -1 1 1 -0.00683413 0.00845761 0.0124144 -61.8832 -1.00741 -9.17234 
1409 89 1 16 -0.4 5.79967 4.02923 1.83987 -43.3827 53.2116 51.0222 -1 1 1 -0.00330216 -0.00201656 -0.00216952 -23.806 -7.5206 10.1329 
6861 429 3 1.008 0.03 8.29275 7.51594 2.55051 -40.8896 7.51594 199.28 -1 0 4 -0.0013357 -0.0229041 0.0347195 -23.1988 9.28137 17.934 
1421 89 3 1.008 0.03 7.2476 2.97565 2.76803 -41.9347 52.158 51.9504 -1 1 1 -0.0312185 -0.0188433 -0.00166359 2.05224 -4.71956 -8.60928 
1410 89 1 16 -0.4 4.4669 6.4618 1.22112 -44.7155 55.6442 50.4035 -1 1 1 0.000414013 0.000609201 0.00207635 27.5323 -5.35885 -1.70598 
1420 89 3 1.008 0.03 7.34689 3.10968 0.998965 -41.8355 52.292 50.1813 -1 1 1 -0.0115936 0.00461296 0.00195231 26.1945 2.54802 -18.7141 
8151 510 3 1.008 0.03 0.417317 1.45702 1.79228 0.417317 50.6394 1.79228 0 1 0 0.00951093 0.00967241 -0.0297956 -9.37525 -1.40359 -5.33179 
3272 205 3 1.008 0.03 5.71443 7.16208 7.23982 5.71443 56.3444 105.605 0 1 2 0.0191783 0.000228029 0.00868332 15.5395 5.64533 31.5967 
8145 510 1 16 -0.4 1.48094 3.17676 1.26421 1.48094 52.3591 1.26421 0 1 0 -0.00427081 -0.00549222 -0.00156005 -17.5268 -3.93333 4.4266 
1419 89 3 1.008 0.03 6.28277 1.93306 1.67518 -42.8996 51.1154 50.8575 -1 1 1 -0.0114652 -0.00558713 -0.00323134 -5.09759 9.09163 2.63169 
1411 89 2 12.01 0.14 5.1233 4.3544 0.632195 -44.0591 53.5368 49.8145 -1 1 1 -0.00702509 -0.0030016 5.72251e-05 46.5889 -49.861 -37.8727 
3134 196 3 1.008 0.03 6.36444 1.77784 7.35128 55.5468 -47.4045 56.5336 1 -1 1 -0.00489216 0.0198421 -0.0268797 18.9597 -35.894 8.45983 
8158 510 3 1.008 0.03 1.62598 3.51273 5.84522 1.62598 52.6951 5.84522 0 1 0 -0.00986468 -0.0253166 -0.0173641 -4.75015 -7.12331 11.804 
1418 89 3 1.008 0.03 3.23398 4.87668 1.49519 -45.9484 54.059 50.6775 -1 1 1 -0.00896108 -0.0191949 0.0177267 -1.33335 -3.53767 -9.73488 
3136 196 3 1.008 0.03 7.76209 0.653991 7.06473 56.9444 -48.5284 56.2471 1 -1 1 -0.00328532 0.011481 -0.0156929 9.40244 0.325385 -9.71823 
3268 205 2 12.01 0.14 4.69083 8.36913 5.85456 4.69083 57.5515 104.219 0 1 2 0.00592171 0.00610489 0.0023229 7.33009 24.7537 -24.1548 
3266 205 1 16 -0.4 3.67118 8.24414 4.81479 3.67118 57.4265 103.179 0 1 2 -0.000754886 -0.00823546 0.00447415 22.2837 6.96641 18.7973 
1412 89 2 12.01 0.14 3.94382 5.23503 0.740855 -45.2385 54.4174 49.9232 -1 1 1 -0.00521093 0.00199477 -0.000902835 -4.80695 30.8888 37.4047 
7275 455 3 1.008 0.03 0.898969 6.55289 4.3943 50.0813 6.55289 53.5767 1 0 1 -0.011875 -0.00633538 -0.0147401 -39.0141 6.38647 -4.07934 
4686 293 3 1.008 0.03 8.45422 7.35153 6.76609 -40.7281 56.5339 55.9484 -1 1 1 -0.0206522 -0.0084473 0.00712856 -5.6264 14.6504 1.45365 
8159 510 3 1.008 0.03 2.40512 1.88386 6.00537 2.40512 51.0662 6.00537 0 1 0 0.000116855 -0.00501795 0.0177844 -1.201 8.42735 -10.2606 
1424 89 3 1.008 0.03 2.95869 7.7561 0.721007 -46.2237 56.9384 49.9034 -1 1 1 0.00776066 -0.0244736 0.0132965 3.80808 -9.43584 10.2435 
4687 293 3 1.008 0.03 8.01724 5.79845 7.09827 -41.1651 54.9808 56.2806 -1 1 1 -0.014536 0.0119838 0.0313397 5.14914 -11.943 5.29925 
3129 196 3 1.008 0.03 4.31318 0.975977 7.29562 53.4955 -48.2064 56.478 1 -1 1 0.00853619 -0.0295617 -0.0293809 11.3329 -24.8616 -2.45343 
594 38 1 16 -0.4 9.62736 2.48366 6.61242 9.62736 51.666 6.61242 0 1 0 0.0062582 -0.00467553 0.00491317 -11.1823 -9.78126 28.0579 
4366 273 3 1.008 0.03 15.0074 1.17056 5.4438 15.0074 1.17056 202.173 0 0 4 -0.0263894 0.0274914 -0.013827 -18.4182 1.42051 -1.25217 
6853 429 2 12.01 0.11 8.97276 7.27691 1.79141 -40.2096 7.27691 198.521 -1 0 4 -0.00861607 -0.00898161 -0.00353763 19.2409 14.3831 -2.42007 
6441 403 3 1.008 0.03 15.0934 2.69279 0.458176 -132.454 2.69279 49.6405 -3 0 1 -0.0106028 0.0243145 -0.00179831 -4.93179 0.344805 7.31975 
4358 273 2 12.01 0.11 15.4388 0.4874 4.72589 15.4388 0.4874 201.455 0 0 4 -0.00359033 -0.00770301 -0.000306819 -21.0404 -33.6934 1.37054 
6447 403 3 1.008 0.03 12.5273 1.2804 2.80189 -135.02 1.2804 51.9842 -3 0 1 -0.0172379 0.00534232 0.0353873 4.6308 10.028 0.678668 
2428 152 3 1.008 0.03 8.68184 0.518792 0.607259 -138.865 49.7011 98.972 -3 1 2 0.00999964 -0.00296686 -0.0181847 7.78238 4.42551 9.08209 
598 38 2 12.01 0.11 10.0853 3.43569 5.75167 10.0853 52.618 5.75167 0 1 0 -0.00108704 -0.00454594 -0.00014478 46.3417 2.96269 -49.3111 
607 38 3 1.008 0.03 9.66782 4.39949 5.89608 9.66782 53.5818 5.89608 0 1 0 -0.0215001 0.00624376 0.0108041 -8.19174 17.8087 5.76267 
608 38 3 1.008 0.03 11.1867 3.47437 5.83405 11.1867 52.6567 5.83405 0 1 0 -0.00226973 -0.00900691 -0.00450781 -11.0024 7.3486 2.31577 
606 38 3 1.008 0.03 9.99349 3.18267 4.67343 9.99349 52.365 4.67343 0 1 0 0.00597917 0.0224947 -0.00676214 -10.5461 -1.15633 16.4384 
6850 429 1 16 -0.4 12.6636 5.55481 2.6319 -36.5188 5.55481 199.361 -1 0 4 -0.00625303 0.00345393 0.00169775 -4.87271 1.61757 3.03299 
6852 429 2 12.01 0.14 12.0093 6.34493 3.61642 -37.1731 6.34493 200.346 -1 0 4 -0.00300791 0.00438882 0.00547978 -18.2826 -28.7493 19.7056 
6849 429 1 16 -0.4 10.2604 7.33125 2.33715 -38.922 7.33125 199.067 -1 0 4 -0.00344194 -0.000801761 -0.00266833 13.5445 4.42186 6.34805 
6851 429 2 12.01 0.14 10.4841 6.46796 3.455 -38.6982 6.46796 200.184 -1 0 4 0.00260616 -0.00128882 0.00877494 15.651 -14.8004 -43.8043 
6856 429 3 1.008 0.03 10.0845 5.47876 3.21118 -39.0979 5.47876 199.941 -1 0 4 -0.00669276 -0.0100306 -0.0175463 -0.462364 1.22713 5.44351 
6855 429 3 1.008 0.03 10.0353 6.81017 4.35341 -39.1471 6.81017 201.083 -1 0 4 0.0106898 0.0096102 -0.0202541 -11.2532 9.54757 14.8028 
6857 429 3 1.008 0.03 12.4292 7.3179 3.68209 -36.7531 7.3179 200.411 -1 0 4 0.0003395 0.00120184 0.0184487 11.514 16.1597 5.73265 
6858 429 3 1.008 0.03 12.1025 5.78375 4.56694 -37.0799 5.78375 201.296 -1 0 4 -0.0213877 0.00539443 -0.0217596 7.67928 12.6522 -6.35227 
6862 429 3 1.008 0.03 14.5785 6.30387 3.01872 -34.6039 6.30387 199.748 -1 0 4 0.0253969 0.0214269 0.00363935 1.0022 20.8969 2.49149 
6854 429 2 12.01 0.11 14.0396 5.39052 2.93874 -35.1428 5.39052 199.668 -1 0 4 0.00259087 -0.00788474 0.00130885 31.258 -37.6851 -7.31873 
6864 429 3 1.008 0.03 14.5617 4.89873 2.06832 -34.6207 4.89873 198.798 -1 0 4 0.0123876 -0.0202383 0.000955054 -18.241 5.35724 21.7817 
6863 429 3 1.008 0.03 14.3132 4.81083 3.87265 -34.8691 4.81083 200.602 -1 0 4 -0.00812862 -0.0285018 -0.0132326 -20.5841 12.5007 -24.1503 
8785 550 1 16 -0.4 16.3782 6.68999 1.02486 -81.9865 203.419 50.2072 -2 4 1 -0.00140403 -0.00196979 -0.00123586 -35.2656 17.6833 -4.24626 
6448 403 3 1.008 0.03 12.5637 2.58672 1.49385 -134.983 2.58672 50.6762 -3 0 1 0.00315326 -0.0044484 0.000341183 6.94943 -31.4117 7.54719 
4361 273 3 1.008 0.03 15.3414 2.47688 3.62278 15.3414 2.47688 200.352 0 0 4 -0.0265216 -0.00500316 -0.00999045 -17.5559 5.90909 -15.8276 
4360 273 3 1.008 0.03 16.2223 4.21811 4.64384 16.2223 4.21811 201.373 0 0 4 0.0268315 -0.0134364 -0.0146947 10.7084 0.803606 -6.16957 
6440 403 3 1.008 0.03 16.504 0.617654 1.43166 -131.043 0.617654 50.614 -3 0 1 0.0203904 0.00219856 0.0175374 -0.011876 -2.13034 -5.07588 
6438 403 2 12.01 0.11 12.8611 1.52715 1.78914 -134.686 1.52715 50.9715 -3 0 1 0.00171828 -0.00154135 -0.00209866 -19.9978 17.4528 -5.65557 
6436 403 2 12.01 0.14 14.8572 1.62701 0.484071 -132.69 1.62701 49.6664 -3 0 1 0.00340044 0.00170495 -0.00270649 -2.07766 25.407 -15.7043 
6434 403 1 16 -0.4 14.2167 1.24531 1.63779 -133.33 1.24531 50.8201 -3 0 1 4.56134e-05 -0.0027739 0.0019215 12.1949 -7.33747 38.7883 
6446 403 3 1.008 0.03 12.3569 0.747079 1.23166 -135.19 0.747079 50.414 -3 0 1 -0.0120311 -0.00320621 0.0151399 -8.54434 8.76858 -10.8098 
4679 293 3 1.008 0.03 12.4257 6.35899 6.95028 -36.7566 55.5413 56.1326 -1 1 1 -0.0142007 0.0053324 0.00362477 -4.68193 5.66387 18.8835 
8795 550 3 1.008 0.03 16.6252 4.55912 1.16554 -81.7395 201.289 50.3479 -2 4 1 -0.016902 0.00460456 0.0226573 4.08305 38.9416 -5.96787 
8794 550 3 1.008 0.03 14.0218 7.85239 0.811888 -84.3429 204.582 49.9942 -2 4 1 -0.0282969 -0.00660614 -0.0108154 0.489677 -1.64863 6.42451 
4682 293 3 1.008 0.03 10.6207 8.10395 6.7566 -38.5616 57.2863 55.9389 -1 1 1 0.00193788 0.021335 -0.0154382 -1.53768 -7.02852 8.18003 
4359 273 3 1.008 0.03 16.6112 2.90521 5.66776 16.6112 2.90521 202.397 0 0 4 -0.0176744 -0.017824 0.0152223 -1.94774 4.93239 3.9486 
4354 273 1 16 -0.4 16.6206 1.06687 4.32582 16.6206 1.06687 201.055 0 0 4 0.00990319 0.000708165 -0.010415 30.9248 -16.1832 -11.7813 
4356 273 2 12.01 0.14 16.3886 2.29975 3.69713 16.3886 2.29975 200.427 0 0 4 0.00279706 0.00105279 0.00375227 18.2209 8.51725 -7.12693 
6860 429 3 1.008 0.03 8.77463 6.29446 1.47972 -40.4077 6.29446 198.209 -1 0 4 0.0123924 0.00768664 0.0030673 -8.17807 -23.9305 -14.3892 
8335 521 3 1.008 0.03 10.4131 0.868974 4.26911 108.778 50.0513 53.4515 2 1 1 -0.00746175 -0.00167601 -0.0244898 4.6543 -15.8181 -10.4843 
4684 293 3 1.008 0.03 14.6236 7.52728 6.37885 -34.5587 56.7096 55.5612 -1 1 1 -0.00365603 -0.02272 0.00612085 -0.134828 0.177237 42.6554 
605 38 3 1.008 0.03 13.6062 3.04544 6.96404 13.6062 52.2278 6.96404 0 1 0 -0.00171312 0.00260278 -0.0140003 -2.39449 7.38671 3.49192 
6435 403 2 12.01 0.14 16.1579 0.851447 0.417372 -131.389 0.851447 49.5997 -3 0 1 0.00140694 0.00597019 -0.0099316 -10.921 -11.0462 5.38244 
6859 429 3 1.008 0.03 8.88725 7.9906 0.967315 -40.2951 7.9906 197.697 -1 0 4 0.0152612 0.0116382 -0.00830081 -1.98957 -3.93076 0.872112 
4028 252 3 1.008 0.03 19.5887 0.453053 2.97396 19.5887 49.6354 52.1563 0 1 1 -0.0107856 -0.0148775 -0.0158344 0.562851 -32.6299 16.1825 
293 19 2 12.01 0.11 24.7231 1.42659 3.05447 24.7231 99.7913 -46.1279 0 2 -1 -0.00128734 -0.00350346 0.000868282 0.189327 4.49884 -23.0759 
8789 550 2 12.01 0.11 17.15 5.57536 1.13691 -81.2147 202.305 50.3193 -2 4 1 0.00196095 -0.00321413 -0.00102535 55.2088 -94.1027 16.1676 
6443 403 3 1.008 0.03 18.7245 1.22337 0.935723 -128.823 1.22337 50.1181 -3 0 1 0.00329252 -0.0452481 -0.0246198 8.61531 -1.85344 33.5638 
4362 273 3 1.008 0.03 16.8868 2.45686 2.72412 16.8868 2.45686 199.454 0 0 4 -0.00266072 0.016045 -0.00599589 -4.51228 -5.46989 8.32058 
304 19 3 1.008 0.03 24.5541 7.40724 4.58671 24.5541 105.772 -44.5956 0 2 -1 0.00402576 0.0272442 -0.00564875 -2.97582 1.71443 -0.0510523 
4365 273 3 1.008 0.03 18.0443 5.59683 4.79205 18.0443 5.59683 201.521 0 0 4 0.00860698 -0.0141644 0.0426801 22.0275 -19.7042 24.6946 
8240 515 3 1.008 0.03 19.8611 8.34195 1.35452 118.226 8.34195 -47.8278 2 0 -1 0.00600026 -0.0189217 -0.0143763 -16.0567 -5.83115 31.2008 
302 19 3 1.008 0.03 24.529 6.27632 5.97411 24.529 104.641 -43.2082 0 2 -1 -0.00751431 -0.00641645 0.000236132 26.1043 16.1932 -10.9862 
1644 103 3 1.008 0.03 21.3912 3.73809 2.98932 -126.156 3.73809 52.1717 -3 0 1 0.00674451 0.0163969 -0.0146585 23.4027 -1.4493 13.8465 
8797 550 3 1.008 0.03 17.7487 5.47372 2.09606 -80.616 202.203 51.2784 -2 4 1 -0.0111661 -0.0220079 0.00465953 -16.6492 18.2062 -24.065 
1633 103 1 16 -0.4 20.4098 3.71105 1.31475 -127.137 3.71105 50.4971 -3 0 1 -0.00735581 0.00217288 0.0010328 -4.03055 8.95272 -14.5384 
298 19 3 1.008 0.03 23.3883 4.75919 4.75508 23.3883 103.124 -44.4273 0 2 -1 -0.0147724 -0.00514807 0.00768523 7.13258 3.16445 -14.8401 
4355 273 2 12.01 0.14 16.8429 3.31622 4.68698 16.8429 3.31622 201.416 0 0 4 -0.000177125 -0.00706001 -0.00362872 -9.98055 5.31774 30.0511 
4353 273 1 16 -0.4 18.2304 3.52029 4.71486 18.2304 3.52029 201.444 0 0 4 0.00590389 -0.00581002 -0.00421969 7.39885 30.7369 15.7682 
1637 103 2 12.01 0.11 20.3946 3.58923 2.68727 -127.152 3.58923 51.8696 -3 0 1 -0.000638465 0.00138131 0.00114358 -3.73651 14.9241 23.6901 
1643 103 3 1.008 0.03 20.0864 2.67489 3.09567 -127.461 2.67489 52.278 -3 0 1 0.00800569 0.0185244 0.0242895 -6.16575 -30.5487 -2.3142 
4357 273 2 12.01 0.11 18.536 4.76924 5.41355 18.536 4.76924 202.143 0 0 4 -0.00353345 0.00134175 -0.00401678 20.0308 0.395075 -37.1943 
1635 103 2 12.01 0.14 20.7871 5.04083 0.978531 -126.76 5.04083 50.1609 -3 0 1 0.00858164 0.00586838 -0.00294504 32.5772 9.29995 24.012 
8605 538 3 1.008 0.03 23.5401 1.55234 7.03467 -25.6423 50.7347 7.03467 -1 1 0 0.0251263 0.0125447 0.0265633 32.3781 5.07839 -8.65675 
1639 103 3 1.008 0.03 19.8769 5.61309 0.845728 -127.67 5.61309 50.0281 -3 0 1 0.0106012 -0.00935907 -0.00144797 3.9839 4.68706 -1.72519 
1645 103 3 1.008 0.03 19.8144 4.30649 3.25834 -127.733 4.30649 52.4407 -3 0 1 -0.017654 -0.0106921 -0.00523701 1.68802 10.4607 -18.0785 
1640 103 3 1.008 0.03 21.4428 5.59236 1.75527 -126.104 5.59236 50.9376 -3 0 1 0.0075581 -0.00810024 0.0130347 -28.5254 -21.5031 -25.3243 
301 19 3 1.008 0.03 23.8584 0.967592 2.68221 23.8584 99.3323 -46.5001 0 2 -1 6.21391e-05 0.00127455 0.0054929 -21.4091 -13.4634 -17.1386 
1573 99 2 12.01 0.11 21.4842 7.43508 5.06194 21.4842 -41.7473 5.06194 0 -1 0 -0.00372882 -0.00309343 0.00357045 26.9827 -9.71478 -21.4412 
1581 99 3 1.008 0.03 21.8513 6.64739 4.34922 21.8513 -42.535 4.34922 0 -1 0 0.0316352 0.00787313 -0.0154489 -12.6002 22.5966 8.1133 
1580 99 3 1.008 0.03 20.4525 7.6502 4.91633 20.4525 -41.5321 4.91633 0 -1 0 -0.0174577 0.0252087 0.0277468 -20.4528 -8.4128 3.09302 
289 19 1 16 -0.4 24.2688 2.5184 3.74565 24.2688 100.883 -45.4367 0 2 -1 -0.0026609 -0.00554942 0.00366342 3.50232 35.6613 35.4479 
1579 99 3 1.008 0.03 21.7411 7.02689 6.01349 21.7411 -42.1555 6.01349 0 -1 0 -0.0066937 0.0358756 0.00313686 -7.61921 -3.56874 18.9093 
8603 538 3 1.008 0.03 21.9411 1.76121 6.15917 -27.2412 50.9436 6.15917 -1 1 0 -0.0270063 0.0161605 -0.00514344 24.2701 -7.87396 23.4197 
4907 307 3 1.008 0.03 17.7966 7.88218 6.19524 17.7966 7.88218 6.19524 0 0 0 -0.00472123 -0.00826679 0.0318362 5.76799 -2.42326 6.67994 
8597 538 2 12.01 0.11 22.5034 1.4689 7.10848 -26.679 50.6513 7.10848 -1 1 0 -0.00261317 -0.00503529 0.00298141 -67.4062 19.5134 -11.0739 
4909 307 3 1.008 0.03 19.1848 7.33127 7.35849 19.1848 7.33127 7.35849 0 0 0 -0.0308791 -0.0161508 0.00115401 -52.7257 32.723 -15.8829 
296 19 3 1.008 0.03 23.5966 3.58533 2.20376 23.5966 101.95 -46.9786 0 2 -1 0.00191707 0.00638298 -0.0154687 15.8485 13.7337 18.7402 
4363 273 3 1.008 0.03 18.1468 4.78727 6.42248 18.1468 4.78727 203.152 0 0 4 -0.00596987 0.00935225 -0.00935117 -0.107329 0.959386 0.342838 
8239 515 3 1.008 0.03 19.048 8.39973 3.2081 117.413 8.39973 -45.9743 2 0 -1 0.00582404 -0.0162045 0.00372486 25.687 5.86503 -50.8492 
297 19 3 1.008 0.03 23.6331 5.7624 3.21591 23.6331 104.127 -45.9664 0 2 -1 -0.0174133 -0.00389857 -0.0194321 -8.74691 -11.1226 7.92464 
291 19 2 12.01 0.14 24.3498 3.75066 3.02625 24.3498 102.115 -46.1561 0 2 -1 -0.00256226 -0.00246465 -0.00794662 3.93813 -29.617 -44.1054 
4901 307 2 12.01 0.11 18.0935 7.7745 7.24918 18.0935 7.7745 7.24918 0 0 0 0.00540851 0.00601541 -0.00311695 36.3139 -61.5352 25.7348 
292 19 2 12.01 0.14 24.0411 4.97677 3.8771 24.0411 103.341 -45.3052 0 2 -1 -0.00963482 -0.00547987 -0.00213253 20.1668 15.5106 -5.17993 
4364 273 3 1.008 0.03 19.6786 4.90612 5.48692 19.6786 4.90612 202.216 0 0 4 0.0205807 0.0194109 -0.00368616 -42.8034 -1.45144 -4.62844 
3958 248 2 12.01 0.11 7.89326 10.5042 6.7763 57.0756 10.5042 -42.4061 1 0 -1 0.00271814 0.00248499 -0.00348261 -39.5744 -15.2614 44.4792 
4764 298 3 1.008 0.03 0.521305 12.1172 5.95996 49.7037 12.1172 5.95996 1 0 0 -0.0191112 -0.00905473 -0.00484334 -3.83769 -17.6842 27.9231 
4757 298 2 12.01 0.11 0.637409 12.9208 5.30549 49.8198 12.9208 5.30549 1 0 0 -0.00304182 -0.000955169 0.00211159 -11.4811 15.2796 -51.1853 
4761 298 3 1.008 0.03 0.66855 11.5167 1.96214 49.8509 11.5167 1.96214 1 0 0 0.00807321 0.012714 -0.0222086 15.0011 -46.9754 2.65641 
3966 248 3 1.008 0.03 6.97986 10.89 6.33008 56.1622 10.89 -42.8523 1 0 -1 0.0138712 -0.00907686 -2.18989e-05 -4.13241 -5.6295 -1.61949 
4765 298 3 1.008 0.03 1.70541 13.1928 5.32626 50.8878 13.1928 5.32626 1 0 0 -0.000755162 -0.0322069 -0.0412304 -10.5323 3.61045 -1.31725 
4760 298 3 1.008 0.03 1.07493 13.8841 2.96495 50.2573 13.8841 2.96495 1 0 0 0.011673 0.0125879 -0.0139334 -5.8928 -9.66602 -0.412917 
2594 163 1 16 -0.4 5.18711 14.9549 0.796689 5.18711 -83.4098 99.1614 0 -2 2 -0.00101872 -0.00205158 -0.00026264 -18.2885 24.3273 4.57879 
6677 418 2 12.01 0.11 7.13029 11.9447 1.65308 105.495 -86.42 50.8354 2 -2 1 0.00835709 -0.00264996 0.00242731 -14.6496 15.348 -31.2939 
6685 418 3 1.008 0.03 6.58315 12.5888 2.37053 104.948 -85.7759 51.5529 2 -2 1 0.00571845 0.0303054 -0.0171791 5.13701 -14.9359 -1.30755 
4754 298 1 16 -0.4 0.928834 12.9585 0.634292 50.1112 12.9585 0.634292 1 0 0 -0.00415771 -0.00470166 -0.00308883 -6.33007 -0.0133337 29.8053 
3273 205 3 1.008 0.03 4.19829 8.8666 6.74473 4.19829 58.049 105.109 0 1 2 -0.00109528 -0.0151204 -0.019287 16.9324 -8.19089 -21.431 
3274 205 3 1.008 0.03 5.54208 9.00624 5.42458 5.54208 58.1886 103.789 0 1 2 0.0386763 -0.00296989 0.0152559 -28.2719 -17.2361 20.5588 
3961 248 3 1.008 0.03 7.8629 10.0123 4.14609 57.0452 10.0123 -45.0363 1 0 -1 0.000941829 0.00831176 0.0134878 -3.31008 7.58294 5.76473 
3280 205 3 1.008 0.03 2.43473 9.78903 5.42267 2.43473 58.9714 103.787 0 1 2 -0.00731665 0.0272765 0.0109741 14.0771 -0.271039 -27.8855 
3270 205 2 12.01 0.11 3.0875 9.51548 4.53541 3.0875 58.6978 102.9 0 1 2 0.00336302 -0.00500816 0.000893507 -13.2057 -20.8389 52.7813 
3278 205 3 1.008 0.03 3.76745 10.2785 4.2988 3.76745 59.4608 102.663 0 1 2 0.00508303 -0.00031166 0.0146344 23.5311 19.2254 2.97458 
3279 205 3 1.008 0.03 2.55142 9.43894 3.65423 2.55142 58.6213 102.019 0 1 2 0.00414241 -0.0171035 -0.0156684 -29.8224 -4.79209 -25.669 
8891 556 3 1.008 0.03 7.81851 13.2406 7.20068 106.183 13.2406 -41.9817 2 0 -1 0.0146877 -0.00614888 0.0202547 -12.8735 30.3759 -19.3293 
8888 556 3 1.008 0.03 6.40455 13.0926 4.73546 104.769 13.0926 -44.4469 2 0 -1 0.027 0.00452998 -0.00853284 -15.6564 19.3977 10.1703 
8881 556 1 16 -0.4 7.003 14.7658 5.81169 105.368 14.7658 -43.3707 2 0 -1 0.00479694 0.000316205 0.00231557 -3.63083 11.5724 -10.0747 
8883 556 2 12.01 0.14 5.97084 14.0423 5.16658 104.336 14.0423 -44.0158 2 0 -1 0.00220117 0.00443012 0.000797839 15.0234 -30.711 -2.04958 
8882 556 1 16 -0.4 5.36521 12.8527 7.16189 103.73 12.8527 -42.0205 2 0 -1 0.00346828 -0.0029257 0.00396142 17.3842 14.9188 -26.3637 
8884 556 2 12.01 0.14 4.86647 13.8266 6.21044 103.231 13.8266 -42.9719 2 0 -1 -0.00143852 -0.000841683 -0.000505372 5.6993 -25.1799 16.8599 
8885 556 2 12.01 0.11 8.04119 14.0096 6.40275 106.406 14.0096 -42.7796 2 0 -1 -0.000476573 -0.00155265 0.00737802 28.9118 -65.549 6.65793 
8890 556 3 1.008 0.03 3.91811 13.4675 5.81958 102.283 13.4675 -43.3628 2 0 -1 -0.0125047 0.0144377 -0.0101894 2.6738 -1.70431 -9.08946 
8887 556 3 1.008 0.03 5.57178 14.6158 4.33908 103.936 14.6158 -44.8433 2 0 -1 0.00249412 -0.0367864 0.0128411 0.0485592 4.21564 -2.47447 
8889 556 3 1.008 0.03 4.64933 14.7702 6.68159 103.014 14.7702 -42.5008 2 0 -1 -0.00288312 0.0124791 -0.00461975 -2.23474 6.91762 7.3585 
2608 163 3 1.008 0.03 3.10707 14.9955 1.27153 3.10707 -83.3692 99.6362 0 -2 2 0.00219802 -0.0231969 0.000772203 7.07701 4.05881 1.78461 
2596 163 2 12.01 0.14 5.50509 16.1211 1.60673 5.50509 -82.2436 99.9714 0 -2 2 0.000451645 0.000694614 -0.00554229 -23.1463 14.8824 -28.9678 
6684 418 3 1.008 0.03 7.31551 10.9171 2.0346 105.68 -87.4476 51.217 2 -2 1 0.00751787 0.0217434 0.0146748 -10.4572 13.056 -4.67052 
3967 248 3 1.008 0.03 7.68939 9.42759 7.15107 56.8717 9.42759 -42.0313 1 0 -1 0.0103699 -0.0175706 0.0123982 15.9119 41.3842 -19.0713 
2601 163 3 1.008 0.03 6.53752 16.119 1.79663 6.53752 -82.2457 100.161 0 -2 2 -0.00275213 -0.0271635 0.00687233 26.1544 -3.83934 3.52938 
6673 418 1 16 -0.4 8.41402 12.5352 1.39866 106.779 -85.8295 50.581 2 -2 1 0.00187204 0.00158007 -0.00615372 1.6335 -26.1756 12.8391 
6680 418 3 1.008 0.03 8.25038 14.4792 2.28479 106.615 -83.8855 51.4671 2 -2 1 0.00642839 0.004754 0.0116278 -6.53645 -17.7156 -15.1564 
6675 418 2 12.01 0.14 8.42358 13.9276 1.32411 106.788 -84.4371 50.5065 2 -2 1 -0.00317718 0.000988264 0.00218111 -12.4352 13.8498 18.3599 
6683 418 3 1.008 0.03 6.482 11.936 0.691053 104.847 -86.4287 49.8734 2 -2 1 -0.0107713 0.0103334 -0.0178311 28.2834 -3.354 38.346 
2602 163 3 1.008 0.03 5.04237 16.0824 2.56433 5.04237 -82.2823 100.929 0 -2 2 -0.0225602 -0.0103045 -0.00365943 -9.12994 -4.43848 14.8702 
6679 418 3 1.008 0.03 7.61405 14.135 0.615194 105.979 -84.2297 49.7975 2 -2 1 -0.0422011 -0.00671763 0.00087058 5.34358 9.69217 1.80612 
2598 163 2 12.01 0.11 3.78755 14.9216 0.416983 3.78755 -83.4431 98.7817 0 -2 2 0.000355931 0.00575473 0.000975588 10.8083 -21.409 30.6806 
6529 409 1 16 -0.4 13.6076 16.3294 0.593787 62.7899 65.5118 49.7761 1 1 1 -0.000375565 0.00281071 0.00183245 31.7314 -23.3953 12.2042 
2104 132 3 1.008 0.03 11.0665 11.9074 7.25785 -38.1159 -86.4573 56.4402 -1 -2 1 -0.00643766 0.00420772 0.00605221 -20.2849 2.68213 11.7227 
2102 132 2 12.01 0.11 11.6294 15.8844 7.02947 -37.5529 -82.4803 56.2118 -1 -2 1 -0.00294086 -0.003615 -0.00205127 15.2597 6.55524 24.5439 
8800 550 3 1.008 0.03 15.6305 9.29039 1.10205 -82.7342 206.02 50.2844 -2 4 1 -0.00121463 0.0222425 -0.0125605 0.508978 2.36704 18.9071 
8893 556 3 1.008 0.03 8.66343 14.7004 6.9227 107.028 14.7004 -42.2596 2 0 -1 0.0046942 -0.025969 -0.00710713 13.2208 11.1031 3.37522 
8892 556 3 1.008 0.03 8.69382 13.3594 5.71944 107.059 13.3594 -43.4629 2 0 -1 0.00935217 -0.026941 -0.022157 -24.1278 33.1684 10.5613 
3962 248 3 1.008 0.03 8.98865 8.97489 4.96046 58.171 8.97489 -44.2219 1 0 -1 0.0112038 -0.0231701 -0.00150773 -4.39434 -12.3657 1.52852 
3956 248 2 12.01 0.14 8.81292 9.9966 4.68011 57.9953 9.9966 -44.5022 1 0 -1 -0.00520956 -0.00518971 -0.0107117 -8.21241 -23.6521 17.6586 
3954 248 1 16 -0.4 8.89944 10.7598 5.87557 58.0818 10.7598 -43.3068 1 0 -1 0.0103085 0.00271728 -0.00274979 20.3198 1.0941 -18.6159 
3960 248 3 1.008 0.03 9.7616 9.98215 2.68149 58.944 9.98215 -46.5009 1 0 -1 0.00189212 -0.00891518 -0.00459434 0.785082 14.9089 48.5131 
6533 409 2 12.01 0.11 14.6092 16.1518 1.62928 63.7916 65.3341 50.8116 1 1 1 0.00150602 0.00968347 -0.00173199 -27.3831 15.145 8.06709 
6540 409 3 1.008 0.03 14.3159 16.5473 2.6291 63.4983 65.7296 51.8115 1 1 1 -0.00305011 0.013794 -0.00532355 2.90892 -1.74957 -16.0449 
3965 248 3 1.008 0.03 12.0255 10.076 2.48485 61.2079 10.076 -46.6975 1 0 -1 0.000729668 0.0294123 -0.00125785 17.5938 3.08086 4.83487 
3955 248 2 12.01 0.14 9.91974 10.3537 3.7737 59.1021 10.3537 -45.4086 1 0 -1 0.0108057 -0.00523983 0.00294511 -2.90037 0.946516 -76.4767 
3959 248 3 1.008 0.03 9.89941 11.4199 3.74327 59.0818 11.4199 -45.4391 1 0 -1 0.00694232 0.00405729 -0.0279272 6.91861 14.8634 -3.52968 
8235 515 3 1.008 0.03 15.8061 10.8874 4.97262 114.171 10.8874 -44.2097 2 0 -1 -0.0135204 0.0154037 -0.0182643 8.60619 -16.1447 8.78893 
8237 515 3 1.008 0.03 16.5149 9.817 6.21924 114.88 9.817 -42.9631 2 0 -1 -0.00787435 0.00067029 0.0155715 -1.02815 -0.281966 -4.15635 
3953 248 1 16 -0.4 11.1365 9.84537 4.21063 60.3189 9.84537 -44.9717 1 0 -1 -0.00229917 0.00293809 0.00181962 13.5933 -8.9775 32.3202 
3963 248 3 1.008 0.03 12.501 11.3617 3.63771 61.6833 11.3617 -45.5446 1 0 -1 0.00689198 0.00362595 0.0188396 -4.99111 1.2435 2.58356 
3964 248 3 1.008 0.03 13.128 9.74899 3.87351 62.3104 9.74899 -45.3088 1 0 -1 0.00223858 0.0132856 0.00465572 13.9164 -9.64052 0.998627 
2106 132 3 1.008 0.03 12.2053 13.6601 6.01942 -36.977 -84.7046 55.2018 -1 -2 1 0.00619205 0.0170956 -0.00281169 4.97719 -5.85062 -15.8653 
6674 418 1 16 -0.4 10.6511 14.9979 1.78416 109.016 -83.3668 50.9665 2 -2 1 0.00362989 -0.00512333 -0.00038978 -13.5668 -12.5659 -2.80609 
6678 418 2 12.01 0.11 11.4586 13.9873 2.37088 109.823 -84.3774 51.5532 2 -2 1 -0.0011147 -0.00715385 0.000923046 -15.348 -35.5388 7.50893 
6688 418 3 1.008 0.03 12.2034 13.5528 1.69171 110.568 -84.8119 50.8741 2 -2 1 0.0296641 0.00217393 0.00592764 -2.54195 7.85136 -0.268258 
8236 515 3 1.008 0.03 15.9232 9.1424 4.67482 114.288 9.1424 -44.5075 2 0 -1 -0.0325928 0.0164811 -0.0202449 1.48997 -0.721006 1.24916 
8229 515 2 12.01 0.11 16.4448 9.98155 5.13934 114.809 9.98155 -44.043 2 0 -1 -0.00231801 -0.00521347 0.00167124 -42.5745 13.614 10.1583 
3957 248 2 12.01 0.11 12.2798 10.2997 3.53681 61.4621 10.2997 -45.6455 1 0 -1 0.00112385 0.00391045 -0.000114147 -24.2601 4.20407 -26.4102 
6686 418 3 1.008 0.03 11.9536 14.3624 3.23939 110.318 -84.0023 52.4217 2 -2 1 0.002415 -0.0387764 -8.07998e-05 10.4766 9.94752 8.31613 
6687 418 3 1.008 0.03 10.8794 13.1045 2.77052 109.244 -85.2602 51.9529 2 -2 1 -0.0104246 0.0327915 0.00642737 7.59263 25.5759 -13.414 
2105 132 3 1.008 0.03 13.2892 13.937 7.3378 -35.8931 -84.4277 56.5201 -1 -2 1 -0.0109861 -0.00423022 -0.00397608 7.33138 4.49189 3.62842 
816 51 3 1.008 0.03 15.8746 15.455 7.02253 163.422 15.455 -42.1598 3 0 -1 0.0121735 0.00505168 0.0180537 8.36631 0.853263 1.37683 
6541 409 3 1.008 0.03 14.8253 15.1299 1.79694 64.0076 64.3123 50.9793 1 1 1 0.00159005 0.0177074 -0.0176728 -2.71536 -23.1688 -0.726987 
814 51 3 1.008 0.03 15.9942 14.1169 5.85968 163.541 14.1169 -43.3227 3 0 -1 -0.00533378 -0.0119525 -0.00138762 7.66814 4.75921 15.7052 
2100 132 2 12.01 0.14 12.2886 13.6358 7.08527 -36.8938 -84.7289 56.2676 -1 -2 1 0.00417384 -0.00544264 0.00604007 -9.06633 24.5606 -2.96483 
806 51 2 12.01 0.11 16.1965 14.4163 6.91605 163.744 14.4163 -42.2663 3 0 -1 0.00918161 0.00711245 0.00284857 -15.8683 -11.684 -24.1178 
6676 418 2 12.01 0.14 9.75541 14.4255 0.815477 108.12 -83.9392 49.9978 2 -2 1 0.00138895 0.00278023 0.0112151 -0.786239 51.2539 -46.0073 
2103 132 3 1.008 0.03 12.5736 11.5345 6.94048 -36.6087 -86.8302 56.1228 -1 -2 1 -0.00610573 0.0189715 -0.0315692 15.3454 2.2166 8.57201 
6539 409 3 1.008 0.03 15.5664 16.5234 1.34528 64.7487 65.7058 50.5276 1 1 1 -0.0199551 -0.00322131 -0.0118773 11.0671 15.9165 -5.51761 
2110 132 3 1.008 0.03 11.4393 15.98 5.99489 -37.7431 -82.3847 55.1772 -1 -2 1 -0.0107322 -0.000486487 -0.0152829 8.97766 1.38075 -25.3137 
2112 132 3 1.008 0.03 12.5893 16.3027 7.41084 -36.593 -82.062 56.5932 -1 -2 1 -0.028798 0.0173653 0.0112737 -7.65995 -11.8376 -14.6706 
2441 153 3 1.008 0.03 24.9314 14.108 3.52628 123.296 63.2904 3.52628 2 1 0 -0.0329236 0.00403467 -0.0294242 -0.742926 -10.1786 8.73852 
2447 153 3 1.008 0.03 24.1976 16.3195 5.40814 122.562 65.5018 5.40814 2 1 0 0.0359516 0.00919644 0.0203592 3.50873 -4.94603 13.8668 
804 51 2 12.01 0.14 17.8758 12.7732 7.29551 165.423 12.7732 -41.8868 3 0 -1 0.00268744 -0.00673266 0.00484006 -13.9557 -32.5355 -16.6616 
2869 180 2 12.01 0.11 24.9191 12.5248 0.666433 24.9191 110.889 -48.5159 0 2 -1 -0.0045133 -0.00247139 -0.00115857 0.0386192 -9.98793 -0.174413 
809 51 3 1.008 0.03 18.1239 12.424 6.27889 165.671 12.424 -42.9035 3 0 -1 -0.00721698 -0.00110301 -0.0195375 1.54499 11.5125 5.6068 
8230 515 2 12.01 0.11 19.6231 8.88655 2.31415 117.988 8.88655 -46.8682 2 0 -1 0.00157345 0.00821102 0.00286803 -16.3004 -16.4139 17.5936 
8238 515 3 1.008 0.03 20.6057 9.12502 2.69719 118.97 9.12502 -46.4852 2 0 -1 -0.00651738 -0.0205216 0.0014669 4.00571 7.50553 1.9858 
2446 153 3 1.008 0.03 24.2128 16.2814 3.69531 122.577 65.4638 3.69531 2 1 0 -0.0423858 -0.00221187 -0.00050073 4.68667 -0.745071 4.87473 
8232 515 3 1.008 0.03 17.3224 12.0052 3.76865 115.687 12.0052 -45.4137 2 0 -1 0.0162098 -0.00513523 -0.0152528 -4.50257 -15.3365 -8.73559 
8225 515 1 16 -0.4 17.6892 10.1426 4.58977 116.054 10.1426 -44.5926 2 0 -1 0.00462672 0.00589063 0.00418317 21.911 6.41047 -6.79498 