ITEM: TIMESTEP
3900000
ITEM: NUMBER OF ATOMS
10479
ITEM: BOX BOUNDS pp pp pp
4.0882558190751794e-01 4.9591174418091420e+01
4.0882558190751794e-01 4.9591174418091420e+01
4.0882558190751794e-01 4.9591174418091420e+01
ITEM: ATOMS id mol type mass q x y z xu yu zu ix iy iz vx vy vz fx fy fz 
8145 510 1 16 -0.4 2.61952 3.59743 5.02992 2.61952 52.7798 5.02992 0 1 0 0.0046475 0.000419902 0.000178486 2.76543 14.4667 -6.2146 
8465 530 1 16 -0.4 8.59848 4.99019 3.50968 106.963 250.902 3.50968 2 5 0 -0.00404907 0.000832213 -0.000934896 -7.29156 12.2163 -34.6419 
8474 530 3 1.008 0.03 8.35339 8.29141 2.94119 106.718 254.203 2.94119 2 5 0 -0.025772 -0.0288544 0.00464698 3.40174 5.37161 -7.74818 
2166 136 2 12.01 0.11 5.82861 1.47059 4.79779 104.193 1.47059 53.9801 2 0 1 0.000796459 0.00327319 0.000315007 -30.2259 -40.8585 -69.9718 
8156 510 3 1.008 0.03 2.02429 2.95898 3.20444 2.02429 52.1413 3.20444 0 1 0 0.0111671 0.0109623 0.0180731 -2.38373 1.64025 -3.81453 
8468 530 2 12.01 0.14 8.15548 7.25413 2.6935 106.52 253.166 2.6935 2 5 0 -0.00264228 -0.00864025 0.0027065 2.21068 -31.0872 15.1813 
8149 510 2 12.01 0.11 1.827 2.72689 4.24536 1.827 51.9092 4.24536 0 1 0 -0.000865958 0.00638925 -0.00746167 -14.5979 1.37776 1.1367 
8473 530 3 1.008 0.03 7.12391 7.04413 3.05644 105.489 252.956 3.05644 2 5 0 0.00838035 -0.000383724 0.00940163 13.4582 3.17266 -5.20401 
5000 313 3 1.008 0.03 3.90872 7.81697 3.00729 -94.456 7.81697 3.00729 -2 0 0 0.0200965 -0.0116491 -0.0114164 -6.07185 23.5014 6.14427 
5004 313 3 1.008 0.03 2.68646 7.439 4.95923 -95.6782 7.439 4.95923 -2 0 0 0.03381 -0.0125579 -0.00856384 -5.18679 8.56037 16.2945 
2865 180 1 16 -0.4 4.52423 3.04417 2.28604 4.52423 101.409 -46.8963 0 2 -1 0.00410709 2.89667e-05 0.00396132 21.8946 23.8652 10.1526 
2175 136 3 1.008 0.03 4.85746 1.96867 4.41894 103.222 1.96867 53.6013 2 0 1 0.00395839 -0.013124 -0.0071592 39.4429 -16.7348 20.4411 
2875 180 3 1.008 0.03 6.16024 4.28524 2.37975 6.16024 102.65 -46.8026 0 2 -1 -0.00697061 0.00124761 -0.0125101 28.4036 -0.120332 -2.8681 
2869 180 2 12.01 0.11 5.23553 4.16718 2.87068 5.23553 102.532 -46.3117 0 2 -1 -0.00943231 0.00583249 0.000616391 -44.5065 4.34214 -0.230823 
2877 180 3 1.008 0.03 5.39668 4.05232 3.97158 5.39668 102.417 -45.2108 0 2 -1 0.00845699 0.0187099 -0.0137594 -5.43009 8.66788 -19.2765 
2876 180 3 1.008 0.03 4.68076 5.11429 2.58123 4.68076 103.479 -46.6011 0 2 -1 -0.00932098 0.00954429 0.0142621 12.2151 -22.0962 21.2593 
8147 510 2 12.01 0.14 2.56405 3.44118 6.4312 2.56405 52.6235 6.4312 0 1 0 0.00447086 -0.00768798 0.000458167 34.5295 17.4483 7.46574 
8730 546 3 1.008 0.03 1.3627 5.38347 2.90818 50.545 -92.9812 52.0905 1 -2 1 -0.0138558 0.0154266 -0.0288451 -25.131 -1.10074 -5.15299 
8733 546 3 1.008 0.03 2.67129 5.9075 0.575124 51.8536 -92.4572 49.7575 1 -2 1 -0.000392789 -0.0077672 -0.00716358 -6.34991 10.8916 -4.29461 
4999 313 3 1.008 0.03 5.15008 8.41509 3.95288 -93.2146 8.41509 3.95288 -2 0 0 -0.0140879 -0.0100622 -0.0176681 -12.2024 14.5364 5.53355 
8157 510 3 1.008 0.03 2.08495 1.68055 4.35302 2.08495 50.8629 4.35302 0 1 0 0.0149614 -0.00618289 0.0104766 1.62988 -3.22619 5.40404 
8146 510 1 16 -0.4 3.77846 5.58523 7.2232 3.77846 54.7676 7.2232 0 1 0 -0.00145362 -0.0011476 0.00252036 -8.4519 7.02767 -2.9827 
8151 510 3 1.008 0.03 1.65368 3.77955 6.92135 1.65368 52.9619 6.92135 0 1 0 0.00516938 -0.0121222 -0.00695886 -5.05638 -1.00476 -4.64969 
8466 530 1 16 -0.4 8.30812 6.90915 1.31999 106.673 252.821 1.31999 2 5 0 -0.00529859 0.00327379 0.00313024 -10.7505 15.1667 4.68212 
2867 180 2 12.01 0.14 4.57881 3.22147 0.89268 4.57881 101.586 -48.2897 0 2 -1 0.00775965 -0.00218684 -0.000530882 -23.6518 5.43262 -5.37106 
2176 136 3 1.008 0.03 6.63637 2.10947 4.90939 105.001 2.10947 54.0917 2 0 1 0.0032348 0.00297461 -0.00494888 18.3008 32.9137 18.7992 
8470 530 2 12.01 0.11 7.15144 7.32685 0.604607 105.516 253.239 0.604607 2 5 0 -0.00165841 -0.00142442 0.00153886 9.38624 -11.4474 -37.6116 
8479 530 3 1.008 0.03 6.28031 6.80177 0.9802 104.645 252.714 0.9802 2 5 0 -0.00101119 0.0331012 -0.0125364 -5.00464 -2.35831 -1.18507 
8736 546 3 1.008 0.03 1.00242 6.0128 5.01819 50.1848 -92.3519 54.2005 1 -2 1 0.00794169 -0.0184421 -2.03261e-05 -3.61091 12.5139 8.51892 
8480 530 3 1.008 0.03 6.94795 8.39854 0.660501 105.313 254.31 0.660501 2 5 0 0.00453076 0.0400919 0.00637634 5.08866 -1.2119 0.901304 
8152 510 3 1.008 0.03 2.69633 2.38045 6.58389 2.69633 51.5628 6.58389 0 1 0 0.00485469 0.00056204 0.017529 -3.24343 -7.31734 8.92777 
4997 313 2 12.01 0.11 3.02224 8.35596 5.48397 -95.3425 8.35596 5.48397 -2 0 0 0.00238502 0.00177448 -0.00536461 7.02087 -45.5279 -31.674 
2786 175 1 16 -0.4 7.7952 7.33872 7.23699 56.9775 154.886 56.4193 1 3 1 0.00197873 -0.00395633 0.0020015 41.6016 -52.1285 13.809 
8159 510 3 1.008 0.03 5.44131 6.68094 6.61316 5.44131 55.8633 6.61316 0 1 0 0.0121747 -0.00458785 -0.00897173 -1.50099 -17.0982 28.3531 
8148 510 2 12.01 0.14 3.83626 4.17664 7.04883 3.83626 53.359 7.04883 0 1 0 0.000415968 -0.000820339 -0.0141979 -21.8835 -10.6726 25.2552 
2162 136 1 16 -0.4 5.6138 0.578949 5.87599 103.978 0.578949 55.0583 2 0 1 -0.002052 0.00908059 -0.00230352 -25.9178 -19.6085 2.30446 
2174 136 3 1.008 0.03 6.29576 0.894638 3.9156 104.66 0.894638 53.0979 2 0 1 -0.0218782 0.027252 -0.00518472 -31.6936 15.8082 32.4407 
8154 510 3 1.008 0.03 4.73687 3.93604 6.55079 4.73687 53.1184 6.55079 0 1 0 -0.00781378 0.00427396 0.0249446 16.3931 -9.99234 -15.0032 
8721 546 1 16 -0.4 0.951116 7.00649 0.992727 50.1335 -91.3582 50.1751 1 -2 1 0.00582597 -0.00373495 -0.00591716 27.1732 48.2601 -8.16714 
2871 180 3 1.008 0.03 4.19396 4.2248 0.608787 4.19396 102.589 -48.5736 0 2 -1 -0.0118428 -0.00767181 0.0105665 7.55203 -12.6849 1.88631 
8728 546 3 1.008 0.03 0.444838 5.07439 0.564714 49.6272 -93.2903 49.7471 1 -2 1 0.0231028 0.00145078 -0.0179643 9.52571 -4.60137 -4.9726 
8155 510 3 1.008 0.03 0.743183 2.85195 4.42655 0.743183 52.0343 4.42655 0 1 0 0.0187969 -0.0141778 0.00855063 10.7025 -0.107505 0.351806 
5005 313 3 1.008 0.03 3.91202 8.04722 5.98642 -94.4527 8.04722 5.98642 -2 0 0 -0.026676 0.00574919 0.00438227 9.95172 6.50015 8.78887 
8732 546 3 1.008 0.03 2.86718 7.6387 0.657455 52.0495 -90.726 49.8398 1 -2 1 0.0101314 -0.00368666 -0.0154898 -2.38707 2.60939 -13.3873 
4285 268 3 1.008 0.03 8.3135 0.877446 2.80592 155.861 -48.3049 -46.3764 3 -1 -1 -0.0181658 -0.0248913 0.0201571 -6.10698 8.87164 -4.76102 
2874 180 3 1.008 0.03 3.74189 1.10867 0.553824 3.74189 99.4734 -48.6285 0 2 -1 0.0139825 -0.0117367 0.0137263 19.2922 29.2615 -9.18872 
1192 75 3 1.008 0.03 8.5165 3.80074 0.427434 8.5165 3.80074 0.427434 0 0 0 0.00993867 0.0034085 0.0024229 1.51534 0.588762 -11.3306 
2872 180 3 1.008 0.03 5.56668 3.11744 0.483316 5.56668 101.482 -48.699 0 2 -1 0.000501858 0.0197298 0.00545044 13.4158 2.36464 3.47364 
8467 530 2 12.01 0.14 9.11926 6.31821 3.48618 107.484 252.23 3.48618 2 5 0 0.00402206 0.000567283 -0.00726946 22.8995 6.00792 9.70878 
8469 530 2 12.01 0.11 9.299 4.09543 4.28902 107.664 250.007 4.28902 2 5 0 0.00827016 -0.00529494 -0.00184729 -12.6717 4.30386 54.6183 
8475 530 3 1.008 0.03 8.92561 4.44177 5.31061 107.29 250.354 5.31061 2 5 0 0.0323127 -0.0175685 -0.0143709 20.1473 -20.3174 -24.181 
8477 530 3 1.008 0.03 10.3941 4.1952 4.24332 108.759 250.107 4.24332 2 5 0 0.0136409 -0.0164654 0.0030559 -9.62508 -5.6823 -1.86751 
8476 530 3 1.008 0.03 8.94834 3.05748 4.12628 107.313 248.969 4.12628 2 5 0 0.0105731 -0.00309535 -0.00111429 6.63355 10.7359 0.985276 
8471 530 3 1.008 0.03 9.12345 6.66806 4.51296 107.488 252.58 4.51296 2 5 0 0.0156163 0.0212885 -0.0131714 -3.69564 1.82176 3.13684 
1323 83 3 1.008 0.03 8.92155 0.450981 6.44067 58.1039 0.450981 -42.7417 1 0 -1 -0.00439699 0.0269745 -0.00691778 -10.1858 -0.103535 -7.09873 
4275 268 2 12.01 0.14 10.7811 0.602535 3.30222 158.328 -48.5798 -45.8801 3 -1 -1 -0.000849386 0.0100361 0.0041661 58.3815 -36.878 -38.4923 
1191 75 3 1.008 0.03 8.96938 2.68247 1.56992 8.96938 2.68247 1.56992 0 0 0 -0.00252361 -0.0142618 0.00316157 -2.77532 -11.9247 17.84 
5579 349 3 1.008 0.03 16.0141 6.46707 6.63471 16.0141 6.46707 6.63471 0 0 0 0.00376078 -0.00292205 -0.00567813 31.2414 9.45017 -20.9902 
8472 530 3 1.008 0.03 10.2277 6.35738 3.24019 108.592 252.269 3.24019 2 5 0 0.00733171 0.00214013 0.000192979 -35.0496 0.903257 -7.11538 
4280 268 3 1.008 0.03 10.6427 1.64002 3.31466 158.19 -47.5423 -45.8677 3 -1 -1 -0.000716894 0.0138783 -0.00137298 -12.5274 27.9024 2.55662 
521 33 3 1.008 0.03 16.4957 5.84567 0.878453 114.86 5.84567 -48.3039 2 0 -1 0.0290606 0.00127019 -0.0206667 -9.86165 -7.86028 -10.0032 
3013 189 2 12.01 0.11 14.803 2.68681 2.72239 14.803 -46.4955 51.9047 0 -1 1 -0.00503841 -0.00529665 0.00208893 38.6522 34.1366 17.9842 
3020 189 3 1.008 0.03 15.6804 2.75664 3.44304 15.6804 -46.4257 52.6254 0 -1 1 0.00484086 0.00459293 0.00293691 -21.6184 -3.94227 -23.6266 
3019 189 3 1.008 0.03 15.0906 3.04835 1.74849 15.0906 -46.134 50.9308 0 -1 1 -0.00137914 0.00455849 0.0221365 9.34217 2.02298 -6.4524 
3018 189 3 1.008 0.03 12.1202 5.41318 4.00865 12.1202 -43.7692 53.191 0 -1 1 -0.0174677 -0.00304143 -0.0160365 -6.0436 0.88727 -1.19856 
3011 189 2 12.01 0.14 14.084 4.98875 3.14777 14.084 -44.1936 52.3301 0 -1 1 -0.000114771 0.00569286 -0.00588622 3.88426 -21.2275 42.0263 
3016 189 3 1.008 0.03 14.1352 5.30016 2.12951 14.1352 -43.8822 51.3119 0 -1 1 0.00743208 0.00528031 0.00956731 3.66481 11.614 -13.7817 
3012 189 2 12.01 0.14 13.1222 5.80182 4.05618 13.1222 -43.3805 53.2385 0 -1 1 0.000575011 0.00491444 0.00665604 27.9133 32.0658 2.34743 
3017 189 3 1.008 0.03 13.1681 6.8679 3.72199 13.1681 -42.3145 52.9043 0 -1 1 -0.00713801 0.0125551 -0.013289 -6.90126 -24.1307 -0.863507 
3009 189 1 16 -0.4 13.801 3.6027 3.17397 13.801 -45.5797 52.3563 0 -1 1 -0.00291489 -0.00395952 0.00447324 -30.3072 -23.0684 5.3171 
3010 189 1 16 -0.4 13.6244 5.93836 5.41235 13.6244 -43.244 54.5947 0 -1 1 -0.00355344 0.000518888 0.00195287 -4.52974 -8.97459 -10.7787 
3015 189 3 1.008 0.03 15.021 5.01486 3.6905 15.021 -44.1675 52.8728 0 -1 1 -0.0104062 0.00180151 0.00483298 11.8257 9.73877 -11.0802 
424 27 3 1.008 0.03 16.7618 0.906434 5.40931 16.7618 50.0888 54.5917 0 1 1 -0.0172326 0.00280846 0.0186649 11.1836 0.164852 -5.95394 
7565 473 3 1.008 0.03 11.7944 7.96876 2.40698 11.7944 155.516 100.772 0 3 2 0.021072 0.0080541 0.00463023 -2.39887 -6.15807 1.31085 
3014 189 2 12.01 0.11 12.8071 6.74512 6.26307 12.8071 -42.4372 55.4454 0 -1 1 -0.00408859 0.00875745 -0.00517413 23.7099 -22.5431 -25.2304 
522 33 3 1.008 0.03 16.3959 6.31784 2.57112 114.761 6.31784 -46.6112 2 0 -1 -0.0216433 -0.0256988 -0.00449744 15.8274 -22.4619 -4.91389 
3021 189 3 1.008 0.03 14.5964 1.64644 2.54416 14.5964 -47.5359 51.7265 0 -1 1 -0.000722442 -0.00368603 0.0133399 -16.5757 -8.35413 8.10091 
1197 75 3 1.008 0.03 11.2632 3.7831 2.04464 11.2632 3.7831 2.04464 0 0 0 0.0111876 -0.00387636 -0.00712095 -6.56117 7.98554 -27.5293 
3024 189 3 1.008 0.03 12.9489 7.80069 5.99406 12.9489 -41.3817 55.1764 0 -1 1 -0.0263474 -0.00560725 0.0136021 -2.81461 -5.15815 10.9959 
3022 189 3 1.008 0.03 11.8345 6.3751 5.99905 11.8345 -42.8072 55.1814 0 -1 1 0.00768689 -0.0268444 -0.00487633 -18.2241 6.9833 12.5243 
4281 268 3 1.008 0.03 12.5449 1.12303 4.27249 160.092 -48.0593 -44.9099 3 -1 -1 -0.00499634 -0.0163168 0.042848 27.8893 29.4159 -1.44252 
2794 175 3 1.008 0.03 9.65425 6.6551 6.76566 58.8366 154.202 55.948 1 3 1 0.0215504 0.00255502 -0.00899966 1.55249 -5.51997 3.13328 
1196 75 3 1.008 0.03 10.6524 5.03849 0.78171 10.6524 5.03849 0.78171 0 0 0 0.0139205 0.0250325 -0.0191702 13.2345 -30.7712 6.33261 
528 33 3 1.008 0.03 15.6864 8.09334 1.80352 114.051 8.09334 -47.3788 2 0 -1 0.00912984 0.00639512 0.00589846 -29.1323 6.2745 25.065 
1189 75 2 12.01 0.11 11.1333 4.01662 0.944671 11.1333 4.01662 0.944671 0 0 0 0.00463953 -0.00400554 0.00120725 -13.3832 -3.61435 0.188491 
518 33 2 12.01 0.11 16.4763 8.32345 1.17106 114.841 8.32345 -48.0113 2 0 -1 -0.000272098 0.00232291 0.00433763 32.4699 -4.63213 -29.2172 
1500 94 3 1.008 0.03 14.2746 1.99287 5.90444 112.639 100.358 55.0868 2 2 1 -0.00763341 -0.00415791 0.00535597 -9.09459 -13.805 16.0191 
3023 189 3 1.008 0.03 13.0996 6.46077 7.28033 13.0996 -42.7216 56.4627 0 -1 1 0.0100914 -0.0101149 -0.012549 -6.4819 10.5352 -1.06492 
1501 94 3 1.008 0.03 12.7292 2.80564 6.3075 111.094 101.17 55.4898 2 2 1 0.0089196 -0.000845565 -0.0240135 8.4758 -7.18602 8.06184 
1195 75 3 1.008 0.03 12.1361 4.02742 0.493812 12.1361 4.02742 0.493812 0 0 0 -0.00511207 -0.00497903 0.0168584 -4.42905 5.02523 6.10983 
1499 94 3 1.008 0.03 14.2929 3.48973 6.5349 112.658 101.854 55.7172 2 2 1 0.0263695 -0.0123689 -0.0380699 -1.60145 2.49637 15.5057 
1493 94 2 12.01 0.11 13.7418 2.55987 6.68548 112.106 100.925 55.8678 2 2 1 0.0033876 -0.0015341 0.000733418 -8.91709 19.6084 -53.0166 
1187 75 2 12.01 0.14 9.05668 2.85942 0.528362 9.05668 2.85942 0.528362 0 0 0 0.00303595 0.00157402 0.00740394 -0.865428 8.4957 -4.53981 
520 33 3 1.008 0.03 17.8596 4.09236 1.5484 116.224 4.09236 -47.6339 2 0 -1 -0.0039253 -0.0153222 0.0116765 -10.3648 -2.65098 -13.226 
516 33 2 12.01 0.14 17.0896 6.12564 1.72178 115.454 6.12564 -47.4606 2 0 -1 -0.0010608 0.0097334 -0.00487176 -22.0765 42.4694 4.89789 
5569 349 1 16 -0.4 17.9409 6.07953 7.17075 17.9409 6.07953 7.17075 0 0 0 0.00739329 0.000975571 -0.00311731 16.9898 -3.29963 5.04741 
7808 488 3 1.008 0.03 23.7926 5.92206 2.88361 72.975 5.92206 2.88361 1 0 0 -0.0106451 0.00966338 0.00589203 -15.5459 -36.9487 -17.1075 
5573 349 2 12.01 0.11 17.0719 6.64342 6.2298 17.0719 6.64342 6.2298 0 0 0 0.00224274 -4.44846e-05 0.00460764 -50.8324 -13.118 44.838 
4953 310 3 1.008 0.03 20.6717 6.47001 3.50758 69.8541 6.47001 3.50758 1 0 0 -0.00829703 0.0131668 0.0176019 5.43788 -11.3587 2.97366 
5580 349 3 1.008 0.03 17.2401 7.67297 6.06169 17.2401 7.67297 6.06169 0 0 0 -0.0212575 0.000908139 0.0159386 3.68617 23.1532 -0.906802 
4958 310 3 1.008 0.03 20.1511 8.09306 1.71385 69.3334 8.09306 1.71385 1 0 0 0.0147691 0.0213845 0.00281919 -6.00787 10.1767 -3.18429 
10323 649 7 12.01 0.35 21.8092 1.31956 2.66598 21.8092 1.31956 2.66598 0 0 0 -0.00231142 -0.00243355 0.0016447 4.39807 2.56233 42.591 
10291 647 6 16 -0.53 23.8344 1.38841 6.51324 23.8344 50.5708 6.51324 0 1 0 -0.000795478 0.00282861 -0.00654325 -8.41378 -10.2936 -17.7409 
7807 488 3 1.008 0.03 23.4896 6.07456 4.66008 72.6719 6.07456 4.66008 1 0 0 -0.0032807 0.0314954 -0.00392968 -8.96853 -14.8929 14.2565 
519 33 3 1.008 0.03 19.024 5.36957 1.4014 117.389 5.36957 -47.7809 2 0 -1 -0.00894596 -0.000796121 0.0140409 13.1318 2.64168 -7.45966 
515 33 2 12.01 0.14 18.1367 5.0665 1.91408 116.501 5.0665 -47.2683 2 0 -1 0.00270149 -0.00717377 0.000276893 3.21439 -4.9995 8.69262 
4949 310 2 12.01 0.11 22.1526 7.42664 7.27817 71.3349 7.42664 7.27817 1 0 0 0.00097057 0.00471603 0.000690291 -23.086 10.4508 -1.15298 
513 33 1 16 -0.4 18.3623 4.82719 3.27041 116.727 4.82719 -45.9119 2 0 -1 0.00105791 -0.00127633 0.00199646 7.1739 4.96064 9.81204 
4951 310 3 1.008 0.03 20.5016 6.12363 6.0893 69.684 6.12363 6.0893 1 0 0 -0.0318572 0.0137126 -0.00287445 -0.709757 3.03002 -17.9412 
524 33 3 1.008 0.03 20.2745 4.21291 2.85363 118.639 4.21291 -46.3287 2 0 -1 -0.0286336 -0.00406831 0.0104 18.9759 2.31748 0.565375 
10324 649 8 19 -0.16 22.1501 2.50985 3.15546 22.1501 2.50985 3.15546 0 0 0 0.0016685 -0.00437558 -0.001544 2.83754 -8.54713 0.8879 
517 33 2 12.01 0.11 19.419 3.90202 3.41346 117.784 3.90202 -45.7689 2 0 -1 0.00701672 -0.0057289 0.000348593 -21.1005 -30.102 35.402 
10296 647 8 19 -0.16 20.9933 2.34662 6.71667 20.9933 51.529 6.71667 0 1 0 0.00135625 0.000496576 0.00377758 31.4358 18.4132 14.1294 
525 33 3 1.008 0.03 19.6048 3.70913 4.50943 117.969 3.70913 -44.6729 2 0 -1 0.00731822 -0.0128917 0.0105238 4.52908 11.6012 -25.2587 
523 33 3 1.008 0.03 19.1104 2.90791 3.04867 117.475 2.90791 -46.1337 2 0 -1 -0.0150509 0.00179191 0.00783717 2.68327 8.6503 -1.99018 
10290 647 5 32.06 1.02 23.6422 2.79173 6.82808 23.6422 51.9741 6.82808 0 1 0 0.000800596 0.000774916 0.00231939 -16.1001 13.3247 9.25104 
7798 488 2 12.01 0.11 23.8358 6.4913 3.75427 73.0181 6.4913 3.75427 1 0 0 -0.00107296 0.000272998 0.00403459 15.2554 41.249 -12.1653 
10326 649 8 19 -0.16 20.8451 0.843352 3.45336 20.8451 0.843352 3.45336 0 0 0 -0.00388889 -0.00419068 0.00519568 -5.65517 10.8395 -14.1954 
10325 649 8 19 -0.16 21.3677 1.53017 1.48652 21.3677 1.53017 1.48652 0 0 0 -0.00129275 0.00164866 0.0013187 -25.0728 5.22028 -34.4929 
4947 310 2 12.01 0.14 20.5808 7.13021 5.6316 69.7631 7.13021 5.6316 1 0 0 0.000774231 0.00319525 0.00826925 -25.4849 -30.0845 -0.886408 
4952 310 3 1.008 0.03 19.8714 7.68173 6.21398 69.0538 7.68173 6.21398 1 0 0 -0.00469534 -0.0298261 0.0290266 -11.5775 11.1874 1.53035 
425 27 3 1.008 0.03 18.0245 2.20734 6.97717 18.0245 51.3897 56.1595 0 1 1 -0.0265864 -0.0035916 -0.00499827 -8.22315 -30.7598 7.06188 
7191 450 3 1.008 0.03 17.2685 0.61894 1.14584 17.2685 49.8013 148.693 0 1 3 -0.00791095 0.0213911 0.00664966 -7.92157 -0.108947 -19.98 
10292 647 6 16 -0.53 23.5411 3.79468 5.77349 23.5411 52.977 5.77349 0 1 0 0.00387044 -0.00389172 -0.00124166 6.02165 -26.783 10.1652 
514 33 1 16 -0.4 17.5805 7.44779 1.41363 115.945 7.44779 -47.7687 2 0 -1 0.00100369 0.000894617 0.00130674 -18.0137 -18.6508 18.5047 
7802 488 3 1.008 0.03 24.3454 7.68951 1.63444 73.5277 7.68951 1.63444 1 0 0 0.00706158 0.0145217 0.0134425 -20.2802 15.6726 15.1359 
6238 390 3 1.008 0.03 23.6054 3.61721 1.08351 23.6054 -45.5651 148.631 0 -1 3 0.00688155 0.000508115 0.00827594 -17.8926 -2.33068 9.16574 
7796 488 2 12.01 0.14 23.4436 8.14533 2.15138 72.6259 8.14533 2.15138 1 0 0 -0.00481069 0.000971914 -0.00271851 6.2075 -37.1875 -22.4138 
7801 488 3 1.008 0.03 22.5748 7.71695 1.62635 71.7572 7.71695 1.62635 1 0 0 -0.0111597 0.00402085 -0.00177385 4.35033 10.1865 -0.920198 
4948 310 2 12.01 0.14 20.2078 7.22138 4.12554 69.3902 7.22138 4.12554 1 0 0 -0.00510256 -0.000728126 -0.00238658 -51.3504 -8.00066 -4.40644 
4945 310 1 16 -0.4 21.8227 7.6682 5.90246 71.005 7.6682 5.90246 1 0 0 -0.00404755 0.00395353 -0.00245186 22.8874 24.0011 -3.52715 
4954 310 3 1.008 0.03 19.0542 7.05041 3.98467 68.2366 7.05041 3.98467 1 0 0 -0.00109122 0.0342029 0.0024855 55.1523 15.9318 8.42697 
7794 488 1 16 -0.4 23.2793 7.76592 3.49668 72.4616 7.76592 3.49668 1 0 0 -0.00307843 0.00846178 0.00119118 -7.82568 4.22623 17.3712 
4946 310 1 16 -0.4 20.7135 8.44451 3.58493 69.8959 8.44451 3.58493 1 0 0 0.0022199 0.00351133 -9.37987e-05 -15.8263 -2.58967 30.1129 
10321 649 6 16 -0.53 24.2508 0.819473 2.05871 24.2508 0.819473 2.05871 0 0 0 -0.00408355 -0.000854771 -0.00411664 -2.47468 3.96744 -10.2217 
6240 390 3 1.008 0.03 24.9379 4.43554 0.484696 24.9379 -44.7468 148.032 0 -1 3 -0.0110624 0.00307061 0.00893722 -1.96414 3.97569 -4.27526 
7806 488 3 1.008 0.03 24.887 6.6485 3.80986 74.0693 6.6485 3.80986 1 0 0 -0.00256535 0.00142706 -0.000436985 18.1737 0.499316 11.5281 
5581 349 3 1.008 0.03 17.1837 6.13791 5.32289 17.1837 6.13791 5.32289 0 0 0 -0.0213645 -0.0190476 0.00332026 0.747926 -14.3422 -27.3853 
4955 310 3 1.008 0.03 22.7618 6.56962 7.3221 71.9441 6.56962 7.3221 1 0 0 0.0128945 -0.0239854 -0.00346028 12.1724 -23.6916 4.48796 
1076 68 2 12.01 0.14 0.419511 12.8812 2.97691 98.7842 12.8812 101.342 2 0 2 -0.00576143 -0.0103053 -0.0104839 -14.2362 31.0283 -30.1476 
4995 313 2 12.01 0.14 4.20216 8.77983 3.50424 -94.1625 8.77983 3.50424 -2 0 0 0.00344258 -0.00641046 -0.0037755 36.2971 -49.7173 -12.0424 
5001 313 3 1.008 0.03 5.43461 9.45882 1.9171 -92.9301 9.45882 1.9171 -2 0 0 -0.00306209 0.00489859 -0.00555727 -15.0253 3.00303 -0.691751 
4680 293 3 1.008 0.03 8.15308 15.4931 6.46464 -41.0293 64.6754 55.647 -1 1 1 0.0121027 -0.00182241 -0.00683941 -10.3612 16.0061 3.95566 
1080 68 3 1.008 0.03 0.973213 11.5499 1.41813 99.3379 11.5499 99.7828 2 0 2 -0.0189002 -0.0114859 0.0186605 -14.6663 -7.81954 -12.5764 
4431 277 3 1.008 0.03 1.0033 11.2448 5.29068 99.368 11.2448 103.655 2 0 2 0.0133341 0.00658579 -0.00410299 -2.97621 -4.59151 -4.52764 
4418 277 1 16 -0.4 1.88713 13.0531 5.78885 100.252 13.0531 104.154 2 0 2 0.00517703 -0.00461125 -0.00148739 -6.48458 16.6349 -0.918117 
4422 277 2 12.01 0.11 1.25391 11.8526 6.14634 99.6186 11.8526 104.511 2 0 2 0.00359735 -0.00529013 -0.00742091 22.8921 -11.3542 14.8132 
5002 313 3 1.008 0.03 3.72797 9.96951 1.84298 -94.6367 9.96951 1.84298 -2 0 0 0.012918 0.000657212 0.0288085 -19.7314 5.5501 -19.5309 
4993 313 1 16 -0.4 3.26751 9.22228 4.4389 -95.0972 9.22228 4.4389 -2 0 0 0.00202712 0.000797127 -0.000606046 -9.7878 37.3675 -3.09834 
1079 68 3 1.008 0.03 1.42276 11.0415 2.95992 99.7875 11.0415 101.325 2 0 2 -0.00654207 0.0222158 0.0129141 -8.30493 -1.83664 -0.423724 
1075 68 2 12.01 0.14 0.572108 11.4838 2.42149 98.9368 11.4838 100.786 2 0 2 -0.00402783 0.00104333 0.00152507 21.6499 2.57274 22.3993 
4996 313 2 12.01 0.14 4.55834 9.84346 2.47484 -93.8064 9.84346 2.47484 -2 0 0 0.00729276 0.00293646 -0.000275736 29.7606 -7.06907 28.7727 
4994 313 1 16 -0.4 4.97406 11.0637 3.10655 -93.3906 11.0637 3.10655 -2 0 0 -0.00134637 -0.000272143 0.000104349 0.312139 -9.57918 -27.5171 
4424 277 3 1.008 0.03 4.36956 14.4571 4.17372 102.734 14.4571 102.538 2 0 2 0.0238477 -0.0041269 -0.0117576 20.5427 -2.61374 -19.8955 
4417 277 1 16 -0.4 4.07887 14.8803 6.12734 102.444 14.8803 104.492 2 0 2 0.010297 0.00478071 -0.00628908 -0.727788 8.84254 0.480888 
5006 313 3 1.008 0.03 4.25481 12.1582 1.54811 -94.1099 12.1582 1.54811 -2 0 0 -0.00550899 0.0123538 -0.00232925 12.2357 5.78388 -2.85778 
4998 313 2 12.01 0.11 5.2316 11.9586 2.02269 -93.1331 11.9586 2.02269 -2 0 0 0.000751976 -0.00139807 0.00329457 -19.0131 31.3281 48.5161 
4419 277 2 12.01 0.14 3.61123 14.3787 4.89139 101.976 14.3787 103.256 2 0 2 0.00354477 -0.00199103 -0.000478628 -15.9504 -20.709 18.8885 
4421 277 2 12.01 0.11 3.06516 15.5533 6.85851 101.43 15.5533 105.223 2 0 2 0.00747258 0.00952272 -0.00746145 -34.4103 -19.3433 -23.4065 
5008 313 3 1.008 0.03 5.93633 11.5824 1.34577 -92.4284 11.5824 1.34577 -2 0 0 -0.0121356 0.0095672 -0.00762888 17.6017 -10.5092 -22.5147 
1082 68 3 1.008 0.03 1.43557 13.2861 3.04813 99.8003 13.2861 101.413 2 0 2 0.0204095 0.009352 -0.0178742 -8.78044 0.697184 5.28797 
4684 293 3 1.008 0.03 6.46004 13.9216 6.08767 -42.7223 63.104 55.27 -1 1 1 0.0194599 -0.0132971 0.0024969 -15.6381 3.92093 -29.1397 
4423 277 3 1.008 0.03 2.75135 14.8682 4.52736 101.116 14.8682 102.892 2 0 2 0.00744877 0.015885 0.0204776 -12.3691 22.7953 -14.0731 
4420 277 2 12.01 0.14 3.1188 12.9582 5.09043 101.483 12.9582 103.455 2 0 2 -0.00662809 -0.0045674 0.00387795 8.2773 -32.7208 23.5234 
7182 449 3 1.008 0.03 2.63262 14.3008 1.35378 2.63262 63.4832 1.35378 0 1 0 -0.000769102 0.00145248 -0.0175477 -5.81261 15.2809 18.1675 
4677 293 2 12.01 0.11 6.55843 13.582 7.07339 -42.6239 62.7643 56.2557 -1 1 1 0.00797423 0.00122167 7.32633e-06 32.3299 -42.1325 6.9874 
5007 313 3 1.008 0.03 5.67235 12.8904 2.46108 -92.6923 12.8904 2.46108 -2 0 0 0.0106525 0.0175438 0.0303605 -12.1805 -13.6843 -11.0357 
4425 277 3 1.008 0.03 2.92483 12.3562 4.1929 101.29 12.3562 102.558 2 0 2 0.0116081 0.000286313 -0.0267701 11.0388 8.46233 1.27269 
4426 277 3 1.008 0.03 3.8621 12.4152 5.71393 102.227 12.4152 104.079 2 0 2 -0.0395137 -0.00391721 -0.017005 -10.0497 3.47305 -10.041 
4679 293 3 1.008 0.03 8.58312 14.1839 5.4882 -40.5992 63.3663 54.6705 -1 1 1 0.0118047 0.0108057 -0.00496737 3.86715 -2.76272 26.7042 
7568 473 3 1.008 0.03 8.28928 11.6964 5.34434 8.28928 159.243 103.709 0 3 2 0.0134488 0.00477118 -0.0108077 3.08327 -5.79524 1.69749 
7566 473 3 1.008 0.03 7.72739 11.3963 3.69585 7.72739 158.943 102.061 0 3 2 -0.019496 0.0152774 0.0161777 20.5511 -18.8652 23.3492 
7558 473 2 12.01 0.11 8.44851 11.0208 4.49797 8.44851 158.568 102.863 0 3 2 -0.00168291 0.000727323 0.00326485 8.54545 27.0374 -39.0583 
7567 473 3 1.008 0.03 8.26232 9.9872 4.77222 8.26232 157.534 103.137 0 3 2 0.0214541 -0.0115472 0.00752402 -9.16009 -1.61086 1.59776 
1086 68 3 1.008 0.03 0.63615 15.6478 2.82808 99.0008 15.6478 101.193 2 0 2 0.00201664 0.0223805 0.00381418 3.85158 -15.1516 -0.55137 
4432 277 3 1.008 0.03 1.93596 11.2883 6.79912 100.301 11.2883 105.164 2 0 2 0.00463712 4.60089e-05 -0.00767969 -4.70584 0.404506 -5.56076 
2800 175 3 1.008 0.03 6.87922 9.04045 7.2764 56.0616 156.587 56.4588 1 3 1 -0.0232418 -0.00405285 0.015961 -26.4858 11.2857 -13.6085 
4429 277 3 1.008 0.03 2.38538 16.1378 6.2264 100.75 16.1378 104.591 2 0 2 0.00382128 0.00890659 -0.0267903 3.55169 -3.10955 -0.141554 
2618 164 3 1.008 0.03 6.10279 15.8817 3.67031 -43.0796 65.0641 -45.512 -1 1 -1 0.0111326 0.00543739 0.0199424 9.93192 0.156773 8.05572 
2623 164 3 1.008 0.03 5.91465 16.2643 1.52897 -43.2677 65.4466 -47.6534 -1 1 -1 -0.00219428 -0.000841156 -0.00294701 20.7347 18.9998 4.53395 
2799 175 3 1.008 0.03 8.56931 9.20987 7.17365 57.7517 156.757 56.356 1 3 1 0.0155565 0.00993173 -0.00250361 2.64235 -1.03281 0.884832 
5003 313 3 1.008 0.03 2.30823 8.70992 6.17259 -96.0565 8.70992 6.17259 -2 0 0 0.0318037 0.0216952 0.00160817 -18.5076 7.94574 14.9133 
4685 293 3 1.008 0.03 6.22097 12.5263 7.15685 -42.9614 61.7086 56.3392 -1 1 1 0.0183893 0.0086694 0.00484174 8.24583 12.4911 -2.39649 
7154 448 1 16 -0.4 9.25526 14.962 0.78387 9.25526 -83.4027 49.9662 0 -2 1 0.00415561 -0.00379717 -0.000908844 19.0085 -3.34149 -28.7018 
5996 375 3 1.008 0.03 14.824 9.51367 7.08164 -34.3583 58.696 7.08164 -1 1 0 0.019871 0.0142123 0.00754941 3.11778 -11.7674 -4.12779 
7557 473 2 12.01 0.11 11.8451 9.0023 2.71682 11.8451 156.549 101.082 0 3 2 -0.00463556 0.00437693 0.00614323 9.27352 37.5163 23.3338 
7553 473 1 16 -0.4 12.3769 9.17845 4.10691 12.3769 156.725 102.472 0 3 2 0.00307022 0.00323029 0.00347633 -28.1823 -3.64889 -54.2816 
7559 473 3 1.008 0.03 12.9202 10.5951 5.39282 12.9202 158.142 103.758 0 3 2 0.0311738 0.0155307 0.00689709 -2.80342 3.20829 6.20225 
7564 473 3 1.008 0.03 12.598 9.47042 2.05187 12.598 157.017 100.417 0 3 2 -0.0243394 -0.0157557 -0.0339689 -10.5633 -4.6469 4.97369 
4676 293 2 12.01 0.14 10.0628 14.8343 7.01745 -39.1196 64.0166 56.1998 -1 1 1 -0.00681678 0.000243995 0.0102316 -39.0839 -14.1618 11.0795 
7161 448 3 1.008 0.03 10.9601 16.1661 0.556571 10.9601 -82.1986 49.7389 0 -2 1 -0.00181813 -0.0164717 -0.0397648 2.88803 -40.6712 0.902932 
526 33 3 1.008 0.03 16.7505 9.38339 1.23127 115.115 9.38339 -47.9511 2 0 -1 -0.0191701 0.00846893 0.00102374 -1.54079 -4.73364 -1.71762 
7563 473 3 1.008 0.03 10.8505 9.50473 2.4777 10.8505 157.052 100.842 0 3 2 -0.0211044 0.0103396 0.0212474 28.8984 -16.7501 13.7809 
7555 473 2 12.01 0.14 12.2309 10.5127 4.5664 12.2309 158.06 102.931 0 3 2 0.00446478 0.00255771 -0.00395902 -19.9175 17.5405 -15.026 
7561 473 3 1.008 0.03 10.4746 9.90494 5.5415 10.4746 157.452 103.906 0 3 2 0.00729053 0.00879193 0.0203499 -8.21165 -5.95017 -6.81946 
603 38 3 1.008 0.03 10.0864 9.12756 0.411134 10.0864 58.3099 0.411134 0 1 0 0.0212549 0.0203197 0.00882249 -5.00661 10.7919 10.6744 
7156 448 2 12.01 0.14 10.6941 15.0927 0.860116 10.6941 -83.272 50.0425 0 -2 1 -0.00232309 -0.0098949 -0.00285757 -48.0096 47.7859 4.27049 
7560 473 3 1.008 0.03 12.5261 11.3067 3.87285 12.5261 158.854 102.238 0 3 2 -0.0158345 -0.0107361 0.0108869 4.50615 -9.89502 -3.94762 
7556 473 2 12.01 0.14 10.7485 10.7903 4.97429 10.7485 158.337 103.339 0 3 2 0.00373444 0.000915915 -0.00268846 22.5649 -8.32021 54.2593 
4674 293 1 16 -0.4 10.8305 13.6725 6.77201 -38.3518 62.8548 55.9544 -1 1 1 -0.00217334 -0.00522976 -0.00239831 -1.47713 17.6415 7.2088 
7153 448 1 16 -0.4 12.4443 14.9752 2.47588 12.4443 -83.3895 51.6582 0 -2 1 0.00295851 -0.0142647 -0.00290292 -35.0968 -1.37124 -7.21094 
7163 448 3 1.008 0.03 12.3078 15.4456 4.43047 12.3078 -82.9191 53.6128 0 -2 1 0.0109761 0.00550416 0.0366935 -3.30487 -9.71542 5.62887 
7554 473 1 16 -0.4 9.80952 11.1078 3.97721 9.80952 158.655 102.342 0 3 2 0.00267297 0.00130413 0.000456305 -25.2356 1.94773 0.929645 
7562 473 3 1.008 0.03 10.7023 11.5128 5.81835 10.7023 159.06 104.183 0 3 2 -0.00735742 -0.000998283 0.0100173 2.6864 -3.14386 -21.1312 
9824 616 8 19 -0.16 15.9958 12.8174 2.65508 65.1781 12.8174 2.65508 1 0 0 0.00311402 -0.00292974 -0.0045001 11.4803 15.8755 11.9424 
7159 448 3 1.008 0.03 10.5767 13.9996 2.67215 10.5767 -84.3651 51.8545 0 -2 1 -0.0247421 0.00520789 -0.0275056 0.982744 -2.92659 -3.73642 
7157 448 2 12.01 0.11 12.7331 14.6521 3.80734 12.7331 -83.7126 52.9897 0 -2 1 -0.000177601 0.00435933 -0.00803906 36.824 -30.3495 21.1791 
7155 448 2 12.01 0.14 10.9829 14.9432 2.30451 10.9829 -83.4215 51.4869 0 -2 1 0.000915205 -0.00282716 0.00378571 51.0455 -9.29009 29.6401 
7160 448 3 1.008 0.03 10.5416 15.6857 2.95848 10.5416 -82.679 52.1408 0 -2 1 0.0436571 0.00289157 0.0188104 -5.99444 9.59415 -5.69202 
2571 161 3 1.008 0.03 15.575 14.2419 6.30343 -33.6073 -84.1228 6.30343 -1 -2 0 0.0112747 -0.00964951 0.00288224 15.8024 28.5192 4.02936 
4688 293 3 1.008 0.03 12.6526 12.9458 7.23139 -36.5298 62.1282 56.4137 -1 1 1 -0.018306 -8.35267e-05 0.0124372 -9.43562 26.4756 6.16019 
7951 497 3 1.008 0.03 15.5392 14.6897 1.09227 15.5392 -34.4926 1.09227 0 -1 0 0.012103 -0.0118222 -0.00139121 25.3977 1.38711 11.6939 
4678 293 2 12.01 0.11 12.0954 13.9267 7.3133 -37.087 63.1091 56.4957 -1 1 1 -0.00481725 0.000669033 -0.00156568 10.9667 -47.5975 29.825 
9820 616 6 16 -0.53 16.6395 11.8993 5.41786 65.8218 11.8993 5.41786 1 0 0 -0.00469283 0.000891914 0.00233317 -2.88821 6.44188 21.3006 
4686 293 3 1.008 0.03 12.5607 14.6102 6.6653 -36.6217 63.7926 55.8477 -1 1 1 -0.0189495 0.0089278 -0.00316202 18.4497 20.8746 -8.52432 
7164 448 3 1.008 0.03 12.3502 13.5975 4.00262 12.3502 -84.7672 53.185 0 -2 1 0.0126443 0.00572725 0.0308005 5.47185 34.6349 3.71139 
2565 161 2 12.01 0.11 16.2363 15.1568 6.45473 -32.9461 -83.2079 6.45473 -1 -2 0 -0.00419487 -0.00061419 -0.00203974 13.2024 -36.4565 5.69639 
2572 161 3 1.008 0.03 16.0442 15.8448 5.65863 -33.1381 -82.5199 5.65863 -1 -2 0 -0.0105127 -0.0108418 0.0159628 -1.48589 8.90693 -10.5856 