ITEM: TIMESTEP
1450000
ITEM: NUMBER OF ATOMS
10479
ITEM: BOX BOUNDS pp pp pp
4.0882558190751794e-01 4.9591174418091420e+01
4.0882558190751794e-01 4.9591174418091420e+01
4.0882558190751794e-01 4.9591174418091420e+01
ITEM: ATOMS id mol type mass q x y z xu yu zu ix iy iz vx vy vz fx fy fz 
7383 462 3 1.008 0.03 4.13817 4.14013 2.35397 53.3205 102.505 100.719 1 2 2 0.00369719 0.00807432 0.00460767 15.1194 15.0237 9.60788 
7380 462 2 12.01 0.14 5.39498 5.99515 2.70828 54.5773 104.36 101.073 1 2 2 0.00433636 -0.00318366 -0.00369288 -9.50959 -46.2333 17.0544 
7385 462 3 1.008 0.03 4.83938 6.53974 2.01458 54.0217 104.904 100.379 1 2 2 0.00704439 -0.000994486 -0.000192684 -13.1353 18.1475 -25.7657 
7384 462 3 1.008 0.03 3.59158 5.26379 3.50253 52.7739 103.628 101.867 1 2 2 -0.00981347 -0.00280284 0.0253609 -28.6777 11.2709 14.7971 
7377 462 1 16 -0.4 5.08774 4.14265 4.25085 54.2701 102.507 102.616 1 2 2 0.0016528 0.00382579 -0.00129397 -13.0147 -28.8459 6.6492 
7379 462 2 12.01 0.14 4.47736 4.82702 3.17226 53.6597 103.192 101.537 1 2 2 0.00464587 0.000955649 -0.00815732 20.4528 -7.4187 -22.9915 
7386 462 3 1.008 0.03 5.57752 6.65332 3.52699 54.7599 105.018 101.892 1 2 2 0.0222112 -0.0145004 0.0323888 9.1136 9.49923 12.6809 
7378 462 1 16 -0.4 6.56223 5.42688 2.15107 55.7446 103.792 100.516 1 2 2 -0.00677918 -2.3931e-06 1.66656e-05 -7.88041 -8.27378 0.764676 
7382 462 2 12.01 0.11 7.29202 6.38793 1.46823 56.4744 104.753 99.8329 1 2 2 -0.000180589 0.00791254 0.00290132 17.2697 12.1868 -23.1733 
7392 462 3 1.008 0.03 7.51424 7.22226 2.09988 56.6966 105.587 100.465 1 2 2 0.000934883 -0.00862436 0.00216465 10.4339 6.80664 11.5244 
3275 205 3 1.008 0.03 7.40187 3.61764 5.52458 -41.7805 3.61764 54.7069 -1 0 1 0.00784563 -0.0248077 -0.00361387 22.0871 -5.41897 -11.5747 
7381 462 2 12.01 0.11 4.43808 2.8557 4.49065 53.6204 101.22 102.855 1 2 2 -0.00454291 -0.00229383 0.00290284 7.80077 12.2194 -10.1902 
7387 462 3 1.008 0.03 4.33172 2.31299 3.51598 53.5141 100.678 101.881 1 2 2 0.0136883 0.0248681 0.00603134 8.34646 -1.57137 23.1254 
7388 462 3 1.008 0.03 4.91135 2.27663 5.30705 54.0937 100.641 103.672 1 2 2 -0.0264638 -0.0231588 0.0188748 3.89451 3.161 -17.3631 
3338 209 3 1.008 0.03 1.9271 4.98554 1.29214 100.292 -44.1968 1.29214 2 -1 0 0.00168286 0.0342631 -0.0182839 -10.1168 2.68292 11.2251 
1840 115 3 1.008 0.03 1.0416 4.42862 6.2529 1.0416 4.42862 -141.294 0 0 -3 0.00680517 -0.00722285 0.0143307 29.447 -1.15508 5.33843 
445 28 3 1.008 0.03 2.72345 2.17346 1.31803 101.088 100.538 148.865 2 2 3 -0.0361027 0.00440189 0.00883341 8.04155 10.1189 3.97294 
3276 205 3 1.008 0.03 8.17181 3.81182 3.91466 -41.0105 3.81182 53.097 -1 0 1 -0.00863452 -0.00144184 -0.0196212 -0.238736 -18.8989 18.0047 
3269 205 2 12.01 0.11 8.13832 3.14062 4.8203 -41.044 3.14062 54.0026 -1 0 1 0.00278 -0.00367739 -0.00357283 -31.7909 10.3027 2.03596 
7389 462 3 1.008 0.03 3.43357 2.96519 4.86859 52.6159 101.33 103.233 1 2 2 -0.0239328 0.0198175 0.0199535 -8.11636 8.07627 -1.15267 
437 28 2 12.01 0.11 3.39102 1.90709 0.498502 101.756 100.272 148.046 2 2 3 -0.00549557 -0.00120298 -0.00646301 -31.169 -34.7655 -26.5427 
3277 205 3 1.008 0.03 7.62153 2.17291 4.59045 -41.5608 2.17291 53.7728 -1 0 1 -0.00889114 -0.0113101 0.00857709 18.3461 14.3591 -1.57517 
443 28 3 1.008 0.03 4.42131 2.17751 0.646964 102.786 100.542 148.194 2 2 3 -0.0464751 0.0300374 0.00458711 8.17543 1.77753 9.18754 
2159 135 3 1.008 0.03 8.20488 6.08185 5.82536 8.20488 55.2642 104.19 0 1 2 0.00524936 0.00733627 -0.000537278 18.4861 7.62808 35.4826 
2173 136 3 1.008 0.03 6.89728 2.99102 0.766534 105.262 2.99102 0.766534 2 0 0 0.0479459 -0.0226919 -0.00836325 -7.24368 -4.81227 2.79769 
3332 209 2 12.01 0.14 0.958612 5.3264 1.71885 99.3233 -43.8559 1.71885 2 -1 0 0.00227878 -0.00764566 -0.00361721 33.6201 0.649736 -3.8884 
7391 462 3 1.008 0.03 6.75927 6.85468 0.65117 55.9416 105.219 99.0159 1 2 2 0.0151174 0.00864463 -0.0106859 -9.15593 -4.19203 -5.17812 
2172 136 3 1.008 0.03 7.89194 2.32563 2.04651 106.257 2.32563 2.04651 2 0 0 0.0233196 -0.00238151 0.00106628 -9.03683 -1.77836 -4.83573 
2165 136 2 12.01 0.11 7.42062 2.08437 1.08154 105.785 2.08437 1.08154 2 0 0 0.00430424 -0.00613814 -0.00472286 34.981 -2.5295 10.4424 
3336 209 3 1.008 0.03 0.444112 3.67667 3.1235 98.8088 -45.5057 3.1235 2 -1 0 0.0216142 0.0223038 0.0190646 6.95335 12.2653 -15.4738 
7390 462 3 1.008 0.03 8.20645 5.99378 1.00292 57.3888 104.358 99.3676 1 2 2 -0.0133753 0.0102977 -0.00211969 -3.05168 -0.863168 9.44994 
3337 209 3 1.008 0.03 1.14823 6.10495 2.51096 99.5129 -43.0774 2.51096 2 -1 0 0.000551201 0.00663089 0.0161285 -1.18394 -33.3508 -14.1576 
2586 162 3 1.008 0.03 5.2503 0.476748 6.91932 5.2503 0.476748 56.1017 0 0 1 0.00340719 0.0050664 -0.00159026 -11.183 1.04494 11.9689 
2829 177 3 1.008 0.03 0.976961 7.7785 3.64854 -48.2054 56.9609 52.8309 -1 1 1 -0.00724865 -0.0262607 0.011188 18.8519 -0.759428 10.0108 
2818 177 1 16 -0.4 2.41137 8.41524 5.84871 -46.771 57.5976 55.0311 -1 1 1 0.00414984 0.001845 -0.00832171 -12.2654 -12.5145 17.7496 
2831 177 3 1.008 0.03 3.94853 7.16407 6.37083 -45.2338 56.3464 55.5532 -1 1 1 -0.00668471 0.0103434 -0.00523033 4.14651 -5.2741 1.474 
2830 177 3 1.008 0.03 2.38773 6.72065 7.17691 -46.7946 55.903 56.3593 -1 1 1 -0.00839793 -0.00777221 0.0326832 12.7374 12.0961 -10.6155 
2822 177 2 12.01 0.11 3.04758 7.55565 6.8279 -46.1348 56.738 56.0102 -1 1 1 0.00242464 0.000274551 0.00408013 -11.8575 20.0856 18.7234 
2748 172 3 1.008 0.03 1.14354 1.03578 3.97935 1.14354 1.03578 53.1617 0 0 1 0.0377146 0.0187326 -0.00828606 -6.72518 -5.60036 -3.20115 
2150 135 2 12.01 0.11 8.43889 6.55249 6.84232 8.43889 55.7348 105.207 0 1 2 -0.00541506 -0.00397874 -0.00427656 -61.0228 -8.83077 7.71796 
439 28 3 1.008 0.03 1.14044 0.433454 0.759846 99.5051 98.7982 148.307 2 2 3 -0.0264006 -0.00625246 -0.00597713 5.6454 8.43085 5.52943 
2171 136 3 1.008 0.03 6.788 1.19901 1.26883 105.153 1.19901 1.26883 2 0 0 -0.0127369 -0.0168841 0.0014958 0.674233 10.8235 -8.68193 
2153 135 3 1.008 0.03 6.48357 4.79664 7.42639 6.48357 53.979 105.791 0 1 2 0.0164685 0.0441482 0.0118751 -0.0261542 -6.27638 1.65352 
2826 177 3 1.008 0.03 0.441989 7.8684 6.45742 -48.7404 57.0508 55.6398 -1 1 1 -0.00772669 -0.00326871 -0.0379499 3.43293 6.68787 -13.3734 
2585 162 3 1.008 0.03 6.57339 1.51226 6.94521 6.57339 1.51226 56.1276 0 0 1 -0.0300474 0.00646644 0.0166746 4.01807 3.43519 3.9214 
5126 321 2 12.01 0.11 16.6975 1.58839 2.74399 16.6975 50.7707 2.74399 0 1 0 0.0088126 -0.00350437 0.000341014 -12.18 -16.9496 16.2252 
5131 321 3 1.008 0.03 10.8759 0.766381 3.50001 10.8759 49.9487 3.50001 0 1 0 0.00939754 -0.00582403 -0.005772 -7.83979 6.02116 4.76001 
2160 135 3 1.008 0.03 8.91457 7.51281 6.70822 8.91457 56.6952 105.073 0 1 2 -0.0141492 0.00477682 -0.0198587 -3.83117 7.73679 -8.72366 
5121 321 1 16 -0.4 12.1306 1.18672 1.96769 12.1306 50.3691 1.96769 0 1 0 -0.00326106 -0.000574285 0.00297921 13.7082 0.777674 6.78184 
3271 205 3 1.008 0.03 8.9619 2.95252 7.35206 -40.2204 2.95252 56.5344 -1 0 1 -0.0152574 -0.00149664 0.0161674 -11.9991 5.37315 8.68843 
7807 488 3 1.008 0.03 16.4474 7.92787 2.06848 65.6298 7.92787 2.06848 1 0 0 0.0205359 0.0102939 0.0237353 26.8942 -28.5434 -9.15947 
5124 321 2 12.01 0.14 14.4363 2.04985 2.21299 14.4363 51.2322 2.21299 0 1 0 0.00492671 0.0037618 0.00108702 -25.9777 23.0747 -36.453 
5130 321 3 1.008 0.03 14.6824 3.09147 2.26897 14.6824 52.2738 2.26897 0 1 0 0.0144185 0.0202217 -0.00662597 9.14034 11.2316 0.737456 
8391 525 3 1.008 0.03 9.27903 6.31573 3.89334 107.644 104.68 -94.4714 2 2 -2 0.0122907 -0.0173862 0.0459332 -8.64162 -6.93526 4.08045 
8387 525 2 12.01 0.14 10.2709 6.66968 3.68891 108.636 105.034 -94.6758 2 2 -2 0.00906021 -0.00515525 0.0119667 -13.7556 -36.9579 -33.1944 
8394 525 3 1.008 0.03 11.0685 4.73532 4.53586 109.433 103.1 -93.8288 2 2 -2 -0.0439717 0.0110777 0.000444624 -5.89606 -3.34608 -7.24346 
8392 525 3 1.008 0.03 10.4028 6.59749 2.60282 108.767 104.962 -95.7619 2 2 -2 -0.016348 -0.0113869 0.0180087 -5.53969 4.81939 2.62396 
8393 525 3 1.008 0.03 11.4613 6.2428 5.30942 109.826 104.607 -93.0553 2 2 -2 0.0349182 0.000901108 -0.0279205 11.3749 -7.38823 -0.0167552 
8390 525 2 12.01 0.11 13.6732 5.45676 4.11301 112.038 103.821 -94.2517 2 2 -2 -0.00365804 -0.00995766 -0.000770746 18.3972 29.7939 -30.4599 
8398 525 3 1.008 0.03 13.6194 4.52539 4.52969 111.984 102.89 -93.835 2 2 -2 0.0111457 0.011183 0.00335217 -6.21005 -43.6965 17.3058 
8399 525 3 1.008 0.03 14.5137 5.44829 3.40691 112.878 103.813 -94.9578 2 2 -2 0.0185684 -0.0179271 -0.0126222 -7.86406 -1.98695 0.406092 
8388 525 2 12.01 0.14 11.3367 5.76611 4.33221 109.701 104.131 -94.0325 2 2 -2 0.000501067 0.000159116 -0.00237701 7.67548 29.9291 1.83236 
8386 525 1 16 -0.4 12.4846 5.86098 3.46838 110.849 104.226 -94.8963 2 2 -2 -0.000548668 0.001179 0.00135421 -7.23512 -1.07468 12.3755 
8400 525 3 1.008 0.03 14.0045 6.12728 4.8706 112.369 104.492 -93.4941 2 2 -2 -0.0119669 0.000276544 -0.0117922 -2.79198 13.3307 14.2217 
5123 321 2 12.01 0.14 12.9672 2.06424 2.69824 12.9672 51.2466 2.69824 0 1 0 -0.00455366 0.00756164 0.0060156 9.86919 -8.47702 -4.52615 
3265 205 1 16 -0.4 9.44393 3.00791 5.39137 -39.7384 3.00791 54.5737 -1 0 1 -0.00516558 0.00921441 0.00452639 -6.57318 -0.883136 -5.60605 
3267 205 2 12.01 0.14 9.46323 2.33962 6.6444 -39.7191 2.33962 55.8267 -1 0 1 0.00241078 0.000420663 -0.000500408 -28.6537 -43.5989 -27.7941 
5127 321 3 1.008 0.03 12.4509 3.0045 2.56993 12.4509 52.1868 2.56993 0 1 0 -0.0176219 -0.00169684 0.00756625 11.4576 15.7695 -1.12076 
10109 635 8 19 -0.16 15.5626 5.33264 1.33948 113.927 54.515 1.33948 2 1 0 9.26856e-05 -0.000645908 -0.000847119 15.5974 -5.55952 37.991 
3266 205 1 16 -0.4 11.5562 1.14134 6.39981 -37.6261 1.14134 55.5822 -1 0 1 -0.0032362 -0.00527117 0.00163761 28.6073 -1.75252 10.6273 
5128 321 3 1.008 0.03 13.0305 1.90737 3.76717 13.0305 51.0897 3.76717 0 1 0 -0.00037056 -0.0299522 0.0156775 -10.9167 -6.71335 6.37058 
3272 205 3 1.008 0.03 8.94757 1.31977 6.58579 -40.2348 1.31977 55.7681 -1 0 1 -0.0140298 0.00365922 0.00847361 16.9198 34.4102 2.29968 
5125 321 2 12.01 0.11 10.8434 1.23696 2.51803 10.8434 50.4193 2.51803 0 1 0 -0.00589728 -0.00423671 0.00166629 -22.9078 -4.75042 -15.9452 
3268 205 2 12.01 0.14 10.8766 2.19088 7.07948 -38.3057 2.19088 56.2618 -1 0 1 -0.00421877 -0.0021411 -3.46713e-05 37.3165 38.2689 36.0031 
3270 205 2 12.01 0.11 12.8395 0.814521 7.03961 -36.3429 0.814521 56.222 -1 0 1 0.00308977 -0.0028022 0.00322268 14.7374 12.9446 -5.44341 
8030 502 3 1.008 0.03 15.8079 5.79895 6.75554 114.173 104.164 105.12 2 2 2 -0.0294584 -0.0161167 -0.0132253 -2.35828 14.0422 6.28909 
10107 635 8 19 -0.16 13.5428 5.02417 0.72095 111.908 54.2065 0.72095 2 1 0 -0.00373016 0.000299462 0.00220685 11.9577 -13.9545 -3.96489 
5132 321 3 1.008 0.03 10.3243 2.22168 2.46736 10.3243 51.404 2.46736 0 1 0 0.0194672 0.00325548 0.028792 14.3983 -9.85917 9.96152 
5129 321 3 1.008 0.03 14.5588 1.82143 1.13371 14.5588 51.0038 1.13371 0 1 0 0.0179412 0.00584535 -0.0139568 -2.97102 -4.54616 14.2459 
4951 310 3 1.008 0.03 12.7087 8.1815 1.28091 61.891 8.1815 1.28091 1 0 0 -0.0272282 -0.0103878 -0.0237433 15.2722 -38.0814 13.3558 
8385 525 1 16 -0.4 10.3555 7.97048 4.11555 108.72 106.335 -94.2492 2 2 -2 -0.001115 -0.00692031 0.00169678 21.6162 38.7357 23.709 
5133 321 3 1.008 0.03 10.212 0.628899 1.86884 10.212 49.8112 1.86884 0 1 0 0.0239827 0.00925842 -0.00852149 1.39125 -4.79895 6.44583 
7806 488 3 1.008 0.03 14.9146 8.4597 2.41624 64.0969 8.4597 2.41624 1 0 0 -0.0063548 0.0104623 0.024849 -2.6252 3.31718 -5.49945 
5122 321 1 16 -0.4 15.3025 1.37932 3.05761 15.3025 50.5617 3.05761 0 1 0 0.00171106 0.00694557 -0.0120106 27.5164 -12.9993 16.3543 
3273 205 3 1.008 0.03 11.351 3.24748 6.95511 -37.8314 3.24748 56.1375 -1 0 1 -0.00150257 -0.000886677 0.0187725 -10.6153 -49.8675 5.71136 
1679 105 3 1.008 0.03 24.5184 5.86764 5.82042 -24.664 -92.4971 -43.3619 -1 -2 -1 -0.0262861 -0.0238834 0.0035036 7.59242 -2.0451 4.18554 
1672 105 3 1.008 0.03 22.6612 6.25327 1.18459 -26.5211 -92.1114 -47.9978 -1 -2 -1 -0.0253464 0.00344016 0.011182 -2.44274 -2.31286 5.37479 
2605 163 3 1.008 0.03 17.0805 2.50426 7.35116 17.0805 2.50426 154.898 0 0 3 0.0154081 0.0209908 -0.00396498 -16.6893 6.60813 26.8417 
4819 302 2 12.01 0.14 23.1339 0.682286 5.90314 170.681 -48.5001 -43.2792 3 -1 -1 0.00405058 -0.00849338 0.00034261 -1.45342 12.0212 26.9723 
175 11 3 1.008 0.03 18.1749 4.80144 3.17143 116.54 53.9838 101.536 2 1 2 -0.00550837 0.00299334 0.0102747 11.0062 -5.11997 12.2611 
168 11 3 1.008 0.03 19.6984 3.68295 6.63319 118.063 52.8653 104.998 2 1 2 0.00356474 0.0336349 -0.0232451 -9.34367 -11.4258 8.06221 
166 11 2 12.01 0.11 19.022 4.99595 3.86578 117.387 54.1783 102.23 2 1 2 -0.00187439 0.000314976 -0.00735998 -7.26726 42.1873 18.0696 
174 11 3 1.008 0.03 19.5486 5.90202 3.45925 117.913 55.0844 101.824 2 1 2 0.0271483 -0.00589861 -0.00420281 -9.56045 -19.1139 7.69531 
176 11 3 1.008 0.03 18.6583 5.27499 4.90432 117.023 54.4573 103.269 2 1 2 0.00387835 0.00462498 0.00111655 -0.320878 -5.10984 -32.0556 
1668 105 2 12.01 0.14 23.9776 5.46442 2.69986 -25.2048 -92.9003 -46.4825 -1 -2 -1 0.00462743 0.0022186 7.6686e-05 11.7164 -44.1783 -24.8685 
162 11 1 16 -0.4 19.932 3.94724 4.04556 118.297 53.1296 102.41 2 1 2 0.00223296 0.00189884 0.00270318 21.0108 -2.58744 15.5271 
4820 302 2 12.01 0.14 24.1466 1.73326 5.33497 171.694 -47.4491 -43.8474 3 -1 -1 -0.0091938 0.00110029 0.0032043 -12.5395 5.40857 1.2888 
4825 302 3 1.008 0.03 23.8903 2.19755 4.35137 171.437 -46.9848 -44.831 3 -1 -1 0.0204562 -0.00517914 0.0117409 -11.1079 -9.12739 18.7023 
164 11 2 12.01 0.14 21.0076 4.28555 4.98044 119.372 53.4679 103.345 2 1 2 -0.00202438 0.00161915 0.00553553 -49.7541 5.73581 14.1484 
163 11 2 12.01 0.14 20.5689 4.29231 6.511 118.934 53.4747 104.876 2 1 2 -0.00382567 -0.00471027 0.00762154 55.0796 -2.24898 -28.6858 
169 11 3 1.008 0.03 21.5 5.20672 4.65636 119.865 54.3891 103.021 2 1 2 0.00727153 -0.0228372 0.00168978 3.65969 -5.10701 6.97846 
1666 105 1 16 -0.4 23.9487 5.13144 4.07294 -25.2337 -93.2333 -45.1094 -1 -2 -1 -0.000294617 0.0085534 0.00218391 -1.19998 1.59553 -10.7241 
161 11 1 16 -0.4 20.423 5.58424 6.99975 118.788 54.7666 105.364 2 1 2 0.00391369 -0.00398175 -0.00109697 -41.2202 10.5835 20.8487 
4826 302 3 1.008 0.03 24.2109 2.54687 6.08712 171.758 -46.6355 -43.0952 3 -1 -1 -0.0121971 0.00740275 0.00272124 2.52293 -7.98874 -10.1196 
1670 105 2 12.01 0.11 24.6987 6.06383 4.77402 -24.4837 -92.3009 -44.4083 -1 -2 -1 0.000382937 -0.00116244 -0.00487162 17.2935 13.5636 3.7439 
167 11 3 1.008 0.03 21.4697 3.93561 7.08905 119.834 53.118 105.454 2 1 2 -0.0101506 0.00903154 -0.0167598 -27.2407 -3.89059 -9.08269 
170 11 3 1.008 0.03 21.6567 3.45853 4.9465 120.021 52.6409 103.311 2 1 2 -0.00603797 -0.0178409 -0.0111343 23.3496 -14.3051 -10.5827 
1667 105 2 12.01 0.14 22.9267 6.48162 2.22416 -26.2557 -91.8831 -46.9582 -1 -2 -1 -0.000531999 0.00525314 0.00263709 34.7819 6.95943 -19.1665 
1678 105 3 1.008 0.03 24.3409 7.06572 4.55968 -24.8414 -91.299 -44.6227 -1 -2 -1 0.00634015 0.0146845 0.0199843 -1.52523 4.08742 3.14936 
1665 105 1 16 -0.4 23.4986 7.82536 2.18239 -25.6837 -90.5393 -47 -1 -2 -1 -0.00160075 -0.000845877 -0.00504481 -12.6877 -33.1906 14.5989 
5136 321 3 1.008 0.03 16.9026 2.56004 2.41236 16.9026 51.7424 2.41236 0 1 0 -0.0304129 -0.0105421 -0.000386318 3.47687 32.3817 1.77809 
1671 105 3 1.008 0.03 22.0843 6.26196 2.84107 -27.0981 -92.1027 -46.3413 -1 -2 -1 0.0164323 0.00826543 0.00876686 -17.9441 15.5045 5.55155 
5062 317 2 12.01 0.11 21.0153 2.67041 1.35043 21.0153 101.035 1.35043 0 2 0 0.00412606 0.00247514 -0.000259605 -32.9383 0.666865 -6.14254 
5070 317 3 1.008 0.03 21.1958 3.67546 0.972685 21.1958 102.04 0.972685 0 2 0 -0.00476762 0.00660513 -0.0224387 3.49637 -1.38379 -2.48425 
1673 105 3 1.008 0.03 23.7695 4.47265 2.24154 -25.4129 -93.8921 -46.9408 -1 -2 -1 -0.0116396 0.0147073 0.000548453 -8.10572 16.3529 4.4788 
1674 105 3 1.008 0.03 24.9899 5.57542 2.29584 -24.1924 -92.7893 -46.8865 -1 -2 -1 0.0244906 -0.0096502 0.0187649 -3.1014 13.0298 4.14432 
5072 317 3 1.008 0.03 21.5861 2.56389 2.25463 21.5861 100.929 2.25463 0 2 0 -0.017281 0.00404545 -0.00894712 9.56127 -9.51008 5.86241 
2780 174 3 1.008 0.03 18.6491 7.92331 4.65225 117.014 -90.4414 4.65225 2 -2 0 -0.0220163 0.0241964 -0.0383447 3.73159 20.7034 0.291158 
5071 317 3 1.008 0.03 19.9518 2.67693 1.62046 19.9518 101.042 1.62046 0 2 0 -0.0137973 0.0336172 -0.00979171 5.25565 -0.339433 2.98932 
2781 174 3 1.008 0.03 19.738 8.51528 5.82646 118.103 -89.8494 5.82646 2 -2 0 -0.0245437 0.00597129 0.0076377 -1.83199 9.33138 5.05136 
4823 302 3 1.008 0.03 22.1962 1.1604 6.28205 169.743 -48.0219 -42.9003 3 -1 -1 -0.0107739 -0.00625461 0.0137156 16.2806 -7.90536 -6.08368 
5134 321 3 1.008 0.03 17.3917 1.34207 3.57816 17.3917 50.5244 3.57816 0 1 0 -0.00592106 0.000675407 0.0175445 -11.4827 0.290167 -10.874 
5135 321 3 1.008 0.03 16.9661 1.05584 1.86195 16.9661 50.2382 1.86195 0 1 0 0.0446511 0.0122482 -0.0121974 3.94362 -18.4027 -8.91156 
2821 177 2 12.01 0.11 0.472451 8.60873 3.21092 -48.7099 57.7911 52.3933 -1 1 1 0.0064127 0.0037943 0.00583486 -12.6185 33.4622 9.81895 
865 55 1 16 -0.4 0.454313 16.4265 6.01386 -48.728 -32.7559 6.01386 -1 -1 0 -0.00244966 -0.0103979 0.00472732 -0.706914 17.4931 19.0236 
2828 177 3 1.008 0.03 1.09024 9.36231 2.68734 -48.0921 58.5447 51.8697 -1 1 1 0.012007 -0.0308289 -0.00528983 4.02067 -14.9568 5.90013 
8396 525 3 1.008 0.03 8.32864 8.67302 4.43211 106.693 107.038 -93.9326 2 2 -2 0.00150913 -0.00368133 -0.0177457 24.1602 -1.35812 -2.97926 
9088 568 3 1.008 0.03 3.68874 16.1164 1.02348 52.8711 114.481 99.3882 1 2 2 0.00415967 0.0268009 0.00266765 -4.36957 -13.4905 5.28176 
875 55 3 1.008 0.03 1.98502 16.3019 4.70095 -47.1973 -32.8805 4.70095 -1 -1 0 -0.0157257 -0.00344829 -0.0179486 -2.93275 -20.6304 12.7293 
9824 616 8 19 -0.16 8.04875 13.2469 0.425136 57.2311 13.2469 0.425136 1 0 0 0.00398265 -0.00158869 -0.00672584 7.12077 26.3456 4.02911 
9073 568 1 16 -0.4 5.59437 12.2719 3.46517 54.7767 110.637 101.83 1 2 2 0.00254485 -0.00177302 -0.0026733 -20.9993 -65.5813 32.3003 
9085 568 3 1.008 0.03 5.01726 10.6804 4.92157 54.1996 109.045 103.286 1 2 2 0.0132608 0.0278472 -0.041127 -9.15247 22.9139 -23.3922 
9077 568 2 12.01 0.11 4.69516 11.1323 3.92849 53.8775 109.497 102.293 1 2 2 -0.00502625 -0.0113123 -0.00212359 31.4802 37.4595 1.86667 
9083 568 3 1.008 0.03 3.67103 11.5899 4.03383 52.8534 109.955 102.399 1 2 2 -0.0102303 0.00147895 -0.00492909 17.4084 -22.6826 -2.60033 
9076 568 2 12.01 0.14 4.27751 13.6146 2.12807 53.4599 111.979 100.493 1 2 2 -0.00275392 0.00252738 -0.0019017 -15.5029 -7.89441 -36.9268 
9080 568 3 1.008 0.03 5.3935 11.8528 1.44408 54.5758 110.217 99.8088 1 2 2 0.0137273 0.00820071 0.00179995 -8.71429 -17.2814 -9.24953 
9075 568 2 12.01 0.14 5.44157 12.6663 2.12432 54.6239 111.031 100.489 1 2 2 0.00175156 0.00447333 -0.000674857 11.1929 7.55016 33.1469 
3782 237 2 12.01 0.11 7.17976 13.2555 6.29385 7.17976 62.4379 6.29385 0 1 0 -0.00532843 0.000703873 -0.00354097 -51.8175 -42.7675 -27.0077 
3791 237 3 1.008 0.03 7.81354 12.6219 5.65637 7.81354 61.8042 5.65637 0 1 0 -0.00376979 0.0121078 -0.0267627 -1.7887 -5.73248 13.214 
3778 237 1 16 -0.4 7.52168 14.5709 5.93265 7.52168 63.7533 5.93265 0 1 0 0.00519562 -0.000160434 0.00143014 18.0382 4.67711 -7.80872 
9079 568 3 1.008 0.03 6.35563 13.1913 1.86547 55.538 111.556 100.23 1 2 2 0.00169775 0.0227336 -0.019891 -0.52042 3.31547 -3.07776 
9084 568 3 1.008 0.03 4.75548 10.2405 3.27022 53.9378 108.605 101.635 1 2 2 0.00026473 -0.003991 0.004192 -8.4879 16.5028 -0.561593 
3780 237 2 12.01 0.14 7.32759 14.7299 4.50393 7.32759 63.9123 4.50393 0 1 0 -0.0012263 0.00806729 -0.0055062 -4.16179 18.466 33.1235 
3785 237 3 1.008 0.03 6.28809 15.0108 4.45058 6.28809 64.1931 4.45058 0 1 0 -0.0234829 0.0131335 -0.000739668 -7.62526 -9.16137 -14.779 
3779 237 2 12.01 0.14 8.14212 15.901 3.981 8.14212 65.0834 3.981 0 1 0 -0.00593234 -0.00407929 -0.00796818 13.035 10.9059 15.1464 
3786 237 3 1.008 0.03 7.57253 13.8273 3.97321 7.57253 63.0097 3.97321 0 1 0 -0.0141254 -0.00243885 0.0141911 -2.14797 -6.07187 -12.9983 
9082 568 3 1.008 0.03 3.38424 13.3802 2.70986 52.5666 111.745 101.075 1 2 2 0.00325373 -0.0171769 -0.0115378 2.78792 -12.257 -2.08823 
9074 568 1 16 -0.4 4.70547 14.8702 2.48346 53.8878 113.235 100.848 1 2 2 -0.00369702 0.000272719 -0.00454609 21.0537 26.8453 -5.01905 
3783 237 3 1.008 0.03 7.49582 16.7256 3.61056 7.49582 65.9079 3.61056 0 1 0 0.00934565 0.010663 0.00394315 7.10493 -6.98829 12.3019 
9081 568 3 1.008 0.03 4.03352 13.6109 1.06349 53.2159 111.976 99.4282 1 2 2 0.00228188 0.0162426 0.0118954 -10.7018 7.00437 3.25216 
9078 568 2 12.01 0.11 3.79799 15.8812 2.09422 52.9803 114.246 100.459 1 2 2 0.00341924 0.00135443 -0.00439625 -11.0428 5.54438 38.7653 
3790 237 3 1.008 0.03 6.09915 13.0276 5.9259 6.09915 62.2099 5.9259 0 1 0 0.02941 0.0111393 0.0286659 43.4154 9.59724 22.4328 
2819 177 2 12.01 0.14 0.439797 9.79363 5.30485 -48.7426 58.976 54.4872 -1 1 1 -0.000586018 0.00165127 0.00160266 31.6054 29.3719 -10.8549 
876 55 3 1.008 0.03 2.38608 15.531 6.30161 -46.7963 -33.6513 6.30161 -1 -1 0 0.00695442 -0.00781043 -0.0104469 -12.0408 7.76615 -3.97755 
2820 177 2 12.01 0.14 1.07109 8.75677 6.2639 -48.1113 57.9391 55.4462 -1 1 1 0.00393651 -0.00857153 -0.00232078 14.7332 -13.7841 4.91288 
9086 568 3 1.008 0.03 2.87807 15.5621 2.66398 52.0604 113.927 101.029 1 2 2 -0.00238479 -0.0163103 0.0271532 7.99328 19.2032 -26.4734 
2825 177 3 1.008 0.03 1.15635 9.14752 7.27665 -48.026 58.3299 56.459 -1 1 1 0.00791084 -0.00131287 -0.00323597 -0.0939916 10.4891 -2.10993 
9867 619 8 19 -0.16 4.89459 15.7098 5.89574 4.89459 64.8922 5.89574 0 1 0 -0.00183844 -0.00254822 0.00686302 -17.4957 -35.7576 13.7209 
869 55 2 12.01 0.11 1.57983 15.7068 5.56221 -47.6025 -33.4755 5.56221 -1 -1 0 -0.00548189 0.00352987 -0.00904939 10.8031 -1.34508 -16.167 
877 55 3 1.008 0.03 1.22953 14.7038 5.24024 -47.9528 -34.4785 5.24024 -1 -1 0 0.00787709 -0.0143131 -0.00378881 7.78416 13.4967 -0.215462 
2823 177 3 1.008 0.03 1.03053 10.7241 5.05337 -48.1518 59.9065 54.2357 -1 1 1 0.00413086 0.0194185 -0.014699 -0.546875 -31.9246 3.08213 
3792 237 3 1.008 0.03 7.2947 12.8871 7.33825 7.2947 62.0694 7.33825 0 1 0 -0.00523349 0.00384282 -0.00839946 -1.61244 13.4967 -13.5451 
784 49 3 1.008 0.03 3.34672 13.5202 7.3689 101.711 111.885 56.5512 2 2 1 -0.0346242 -0.0146233 -0.0105965 1.39784 4.11249 -2.02736 
8395 525 3 1.008 0.03 9.02256 9.03215 2.90825 107.387 107.397 -95.4565 2 2 -2 -0.00156847 -0.0227614 -0.0150551 4.63776 2.97349 -16.0981 
10454 665 9 24.305 2 14.6822 10.9449 0.463309 63.8645 10.9449 0.463309 1 0 0 0.00282074 0.00161331 -0.000591131 13.4207 11.3949 -0.344904 
968 61 3 1.008 0.03 16.0288 13.797 7.25359 16.0288 13.797 56.4359 0 0 1 -0.0199089 -0.0530344 -0.0183182 -2.27459 3.67315 -2.77202 
10466 677 9 24.305 2 8.82646 15.6212 6.86775 8.82646 64.8035 6.86775 0 1 0 -0.00734864 -0.00473533 0.00269735 0.242578 0.80755 7.24422 
3784 237 3 1.008 0.03 8.62305 15.5385 3.07782 8.62305 64.7209 3.07782 0 1 0 0.0124856 0.0110502 0.0144796 10.3027 3.85008 -0.034327 
8389 525 2 12.01 0.11 9.30426 8.91782 3.93315 107.669 107.283 -94.4315 2 2 -2 -0.00363536 -0.00118906 -0.00165059 -24.9559 -13.8835 13.4062 
9649 604 8 19 -0.16 12.2589 8.69369 6.48032 12.2589 57.876 6.48032 0 1 0 -4.69899e-05 0.00871935 0.00447208 1.60521 -3.85531 0.429542 
3777 237 1 16 -0.4 9.07409 16.272 5.07273 9.07409 65.4544 5.07273 0 1 0 -0.00035578 -0.00178132 -0.00144303 -6.46476 6.52678 -32.7402 
9651 604 8 19 -0.16 12.0862 10.5598 5.45106 12.0862 59.7422 5.45106 0 1 0 -0.0062703 0.0025777 -0.00358783 17.9899 -4.15168 11.6883 
9648 604 7 12.01 0.35 12.3365 10.0012 6.6451 12.3365 59.1836 6.6451 0 1 0 -0.00293871 -0.00270708 -0.00636109 -7.99147 8.36519 -2.0675 
9646 604 6 16 -0.53 14.9371 9.91051 6.75391 14.9371 59.0929 6.75391 0 1 0 -0.00176355 0.00250312 0.0010124 19.706 -8.81487 -12.9335 
8397 525 3 1.008 0.03 9.64514 9.87809 4.331 108.01 108.243 -94.0337 2 2 -2 -0.00900266 0.0246865 0.00459933 -2.60084 -0.697576 -3.19579 
9820 616 6 16 -0.53 10.4154 13.7186 2.20706 59.5977 13.7186 2.20706 1 0 0 -0.00393026 0.00429048 -0.00527066 10.6841 -23.967 -35.7479 
4945 310 1 16 -0.4 13.2708 10.1591 1.44145 62.4532 10.1591 1.44145 1 0 0 0.00614967 -0.00560899 0.00022134 -12.4852 -11.5721 -6.17572 
4955 310 3 1.008 0.03 13.2636 11.0475 3.42497 62.4459 11.0475 3.42497 1 0 0 -0.00382817 0.0121646 -0.00416093 15.6952 13.094 3.10342 
4949 310 2 12.01 0.11 12.8497 10.2871 2.80809 62.0321 10.2871 2.80809 1 0 0 -0.00497029 -0.00916814 0.00707927 -22.7351 -32.6247 1.9701 
3650 229 1 16 -0.4 10.1853 14.2054 6.57233 10.1853 63.3877 6.57233 0 1 0 0.000111177 -0.000699614 -0.00238462 13.2915 0.82322 0.0798118 
4956 310 3 1.008 0.03 11.7838 10.4409 2.91325 60.9662 10.4409 2.91325 1 0 0 0.0100682 -0.00242442 -0.00692259 -6.5504 3.19899 -7.7234 
10148 638 5 32.06 1.02 15.5941 13.4987 2.59084 15.5941 13.4987 51.7732 0 0 1 -2.63221e-05 -0.00209779 -0.000395932 46.4769 -2.44975 41.7561 
4957 310 3 1.008 0.03 12.9907 9.32728 3.31433 62.173 9.32728 3.31433 1 0 0 0.0128576 -0.00962808 0.00226883 4.46453 3.72537 1.83369 
10152 638 8 19 -0.16 13.6512 15.1595 2.07132 13.6512 15.1595 51.2537 0 0 1 0.00212381 0.00268376 0.00114733 -9.06246 9.3226 -21.5519 
10151 638 7 12.01 0.35 14.1953 14.5498 3.07561 14.1953 14.5498 52.258 0 0 1 -0.0029804 -0.0114574 -0.00315285 12.3121 -33.7989 -23.4967 
10153 638 8 19 -0.16 14.6078 15.4615 3.87395 14.6078 15.4615 53.0563 0 0 1 0.00269958 -0.00351592 -0.00237691 -3.04103 25.6651 34.0961 
10149 638 6 16 -0.53 14.9815 12.2795 2.08444 14.9815 12.2795 51.2668 0 0 1 0.000305685 0.00186523 0.00145224 2.96802 10.2762 -32.2171 
10154 638 8 19 -0.16 13.2521 13.8122 3.61811 13.2521 13.8122 52.8005 0 0 1 0.00390521 0.00090819 0.000263406 -6.64997 5.27379 15.7866 
7798 488 2 12.01 0.11 15.9401 8.79773 2.30096 65.1225 8.79773 2.30096 1 0 0 -0.00977324 -0.00523633 0.00291242 -12.6773 30.4862 14.0114 
3654 229 2 12.01 0.11 11.1182 13.9337 5.47548 11.1182 63.116 5.47548 0 1 0 0.00511123 0.00287743 0.00243743 -48.5529 2.55865 17.3652 
3664 229 3 1.008 0.03 12.14 13.9718 5.7661 12.14 63.1541 5.7661 0 1 0 -0.0178911 -0.0033282 0.00330065 18.4326 -11.9149 7.5803 
3662 229 3 1.008 0.03 10.7861 12.9841 4.97838 10.7861 62.1664 4.97838 0 1 0 0.019363 -0.00261822 0.0187698 15.4796 18.0528 2.98538 
3663 229 3 1.008 0.03 11.0643 14.8134 4.84712 11.0643 63.9958 4.84712 0 1 0 0.0145269 0.0122183 0.00573986 -4.69821 -6.03623 -14.5802 
10150 638 6 16 -0.53 16.3417 13.2963 3.8455 16.3417 13.2963 53.0279 0 0 1 -0.0068663 0.00250214 -0.000325829 -19.4754 7.996 -35.0692 
10147 638 4 14.01 -0.66 16.3462 14.3876 1.49746 16.3462 14.3876 50.6798 0 0 1 0.000827031 -0.000519533 0.00380848 -18.4917 -28.2557 6.15026 
9818 616 5 32.06 1.02 10.6397 13.2124 0.836416 59.822 13.2124 0.836416 1 0 0 0.00581652 -0.000951346 -0.00291388 -0.226235 40.212 37.1869 
7808 488 3 1.008 0.03 16.2178 9.15646 3.28983 65.4002 9.15646 3.28983 1 0 0 -0.00414971 -0.0145058 -0.00366045 5.45506 -1.08736 1.40679 
7794 488 1 16 -0.4 16.1166 9.83582 1.32911 65.299 9.83582 1.32911 1 0 0 -0.00058302 0.00207598 0.00583493 4.96045 21.4505 -20.8767 
4952 310 3 1.008 0.03 11.433 9.2077 0.923944 60.6153 9.2077 0.923944 1 0 0 -0.0014767 0.0116003 0.0288007 20.2668 -1.0697 -8.2512 
9819 616 6 16 -0.53 10.6622 11.8011 0.615189 59.8446 11.8011 0.615189 1 0 0 0.008998 -0.00263056 0.00445246 -5.23691 -17.3567 -3.68844 
4947 310 2 12.01 0.14 12.539 9.06996 0.786999 61.7213 9.06996 0.786999 1 0 0 -0.00396212 0.00331027 0.0067799 -23.836 55.5176 16.1429 
973 61 3 1.008 0.03 16.2656 16.7193 6.73888 16.2656 16.7193 55.9212 0 0 1 0.00665971 -0.0209188 -0.0130008 31.0597 -28.4891 5.80623 
9650 604 8 19 -0.16 11.2834 10.3559 7.37091 11.2834 59.5383 7.37091 0 1 0 -4.94517e-05 -0.000235695 0.00295741 1.9368 -7.79851 0.634564 
9647 604 6 16 -0.53 13.724 11.9642 7.39736 13.724 61.1465 7.39736 0 1 0 -0.000633331 0.00635125 0.00825026 14.9598 4.46592 10.0136 
7715 483 2 12.01 0.14 22.9884 16.1733 0.759548 -26.1939 65.3556 -146.787 -1 1 -3 -0.000507656 -0.00869001 -0.00445597 1.17298 11.837 25.5441 
3245 203 3 1.008 0.03 23.6412 14.4651 5.49766 72.8236 63.6474 103.862 1 1 2 -0.0192061 0.0244922 -0.0126184 21.6872 13.8693 2.28118 
7801 488 3 1.008 0.03 18.2284 9.62679 1.16388 67.4107 9.62679 1.16388 1 0 0 -0.0123693 -0.0376339 0.00661411 1.99428 0.627632 1.94536 
7800 488 3 1.008 0.03 17.9881 12.2936 0.587188 67.1705 12.2936 0.587188 1 0 0 0.0148304 -0.000836288 -0.0159932 22.0384 40.0173 8.59894 
7796 488 2 12.01 0.14 17.4766 10.4131 1.2445 66.6589 10.4131 1.2445 1 0 0 0.00237887 0.00327646 0.00771874 -22.5511 -5.47711 43.2517 
2254 141 3 1.008 0.03 20.3841 13.0672 7.20207 20.3841 13.0672 56.3844 0 0 1 0.0129722 -0.00461197 -0.0122916 12.9281 -13.6187 0.0389312 
7719 483 3 1.008 0.03 23.0582 15.1249 0.619653 -26.1241 64.3072 -146.927 -1 1 -3 0.01327 -0.00735189 0.00565151 10.8638 -20.4852 -3.32524 
972 61 3 1.008 0.03 17.4273 15.5338 6.01968 17.4273 15.5338 55.202 0 0 1 1.76387e-06 0.014949 -0.0150358 0.485762 -19.8618 -19.9193 
3214 201 3 1.008 0.03 23.6785 10.5018 6.16745 -74.6862 158.049 6.16745 -2 3 0 0.0303883 -0.00286282 0.0089002 -0.167268 -4.53371 0.438603 
3244 203 3 1.008 0.03 22.7034 13.0837 5.22993 71.8857 62.2661 103.595 1 1 2 -0.00725532 0.00650191 0.0158037 -9.88293 8.5933 -3.30225 
3215 201 3 1.008 0.03 23.2494 8.88853 5.70244 -75.1153 156.436 5.70244 -2 3 0 0.00980386 -0.00888486 -0.01458 -1.62216 -16.8777 -19.9151 
2255 141 3 1.008 0.03 18.6336 12.9704 7.30835 18.6336 12.9704 56.4907 0 0 1 0.016342 0.0107191 -0.0373121 -27.5114 -21.8918 -13.5473 
1675 105 3 1.008 0.03 23.0499 9.6894 2.00275 -26.1324 -88.6753 -47.1796 -1 -2 -1 -0.0047804 0.0036782 -0.000669801 -1.77824 23.3111 0.208292 
2783 174 3 1.008 0.03 23.0831 12.2399 1.77228 121.448 -86.1248 1.77228 2 -2 0 0.0263375 0.00471746 0.010797 0.242375 4.39732 1.35681 