ITEM: TIMESTEP
2900000
ITEM: NUMBER OF ATOMS
10479
ITEM: BOX BOUNDS pp pp pp
4.0882558190751794e-01 4.9591174418091420e+01
4.0882558190751794e-01 4.9591174418091420e+01
4.0882558190751794e-01 4.9591174418091420e+01
ITEM: ATOMS id mol type mass q x y z xu yu zu ix iy iz vx vy vz fx fy fz 
2242 141 1 16 -0.4 5.47312 6.04872 5.2574 5.47312 6.04872 54.4397 0 0 1 0.00336338 -0.00563242 -0.00535137 23.0841 35.6486 -7.47761 
2246 141 2 12.01 0.11 4.74395 4.84868 5.01218 4.74395 4.84868 54.1945 0 0 1 0.00223548 0.00529946 -0.0118325 1.1952 -7.07607 1.3076 
2249 141 3 1.008 0.03 5.23916 8.20942 5.00339 5.23916 8.20942 54.1857 0 0 1 -0.0191028 -0.00977888 -0.00830284 -3.96653 -20.7124 -6.46719 
2241 141 1 16 -0.4 6.67893 7.5572 2.9457 6.67893 7.5572 52.128 0 0 1 -0.00264209 -0.00115482 0.00394992 1.7531 17.1716 28.5287 
2244 141 2 12.01 0.14 4.97614 7.22787 4.5302 4.97614 7.22787 53.7126 0 0 1 -0.00491611 -0.0154116 -0.00167705 12.9667 -3.19243 19.5804 
2250 141 3 1.008 0.03 3.92782 7.20531 4.51926 3.92782 7.20531 53.7016 0 0 1 -0.0228093 0.00162506 -0.00697869 -28.805 -1.41589 8.535 
2243 141 2 12.01 0.14 5.34542 7.24913 3.06774 5.34542 7.24913 52.2501 0 0 1 0.0048228 -0.00328637 0.00193655 12.7528 -49.097 4.41184 
2248 141 3 1.008 0.03 5.36752 6.24832 2.62645 5.36752 6.24832 51.8088 0 0 1 0.00184666 -0.0244981 -0.010226 -22.3556 -3.82824 12.6484 
970 61 3 1.008 0.03 7.13448 3.71314 4.37245 7.13448 3.71314 53.5548 0 0 1 -0.00498664 -0.0118336 0.00437082 -12.5225 -9.79721 -12.2523 
974 61 3 1.008 0.03 8.46787 4.95301 2.85021 8.46787 4.95301 52.0326 0 0 1 -0.0079281 0.00747888 0.0180758 23.8945 16.9562 32.1527 
2253 141 3 1.008 0.03 8.10591 7.57969 1.69292 8.10591 7.57969 50.8753 0 0 1 -0.0178087 -0.00680892 -0.00873853 21.7937 1.22896 -3.5071 
2245 141 2 12.01 0.11 7.063 7.4112 1.6476 7.063 7.4112 50.8299 0 0 1 -0.00278669 -0.00349423 0.00479021 17.7085 -15.4031 -22.6895 
2251 141 3 1.008 0.03 6.9216 6.38561 1.24203 6.9216 6.38561 50.4244 0 0 1 0.00700287 -0.0157953 -0.017653 -0.719594 15.1941 0.769774 
7715 483 2 12.01 0.14 2.72148 4.78227 1.21689 2.72148 103.147 -146.33 0 2 -3 -0.00521782 -0.00124276 -0.000746176 -44.6918 18.7303 -15.3046 
7713 483 1 16 -0.4 2.69981 5.56442 2.41008 2.69981 103.929 -145.137 0 2 -3 0.00277119 -0.0053998 -0.00248369 15.3121 -25.9598 13.1775 
10127 636 6 16 -0.53 7.74583 8.27321 5.51514 7.74583 8.27321 54.6975 0 0 1 0.00259322 0.00119288 0.00774722 -15.8047 -11.0578 17.9525 
2254 141 3 1.008 0.03 5.31417 3.99146 5.35846 5.31417 3.99146 54.5408 0 0 1 0.00964406 -0.028994 0.0116747 -9.42955 1.46337 9.36848 
2256 141 3 1.008 0.03 4.57867 4.54038 3.98515 4.57867 4.54038 53.1675 0 0 1 -0.0264995 0.0111434 -0.0213458 -3.57757 13.5874 -4.98939 
7723 483 3 1.008 0.03 1.8464 7.02183 3.4949 1.8464 105.387 -144.052 0 2 -3 -0.0315172 0.00262743 0.00967752 -8.46524 5.89526 2.72326 
7717 483 2 12.01 0.11 1.72866 6.54961 2.52698 1.72866 104.914 -145.02 0 2 -3 0.0046755 -0.00406465 0.00445778 20.7217 6.68482 -19.1648 
10461 672 9 24.305 2 7.22913 6.45803 6.32455 7.22913 6.45803 55.5069 0 0 1 0.000389041 0.000420281 -0.00418822 0.195135 1.86534 -28.6298 
2255 141 3 1.008 0.03 3.82018 4.88982 5.57864 3.82018 4.88982 54.761 0 0 1 0.00191915 -0.0127908 -0.000917562 -5.86128 -1.93629 -9.35168 
2050 129 1 16 -0.4 6.45357 0.934511 4.596 55.6359 50.1169 53.7783 1 1 1 0.00522429 0.000888143 -0.00230527 -2.06969 1.23529 8.36694 
7714 483 1 16 -0.4 4.88963 4.16135 1.15537 4.88963 102.526 -146.392 0 2 -3 -0.000283439 0.00420863 -0.00389074 2.98747 -9.75643 -3.98491 
7724 483 3 1.008 0.03 1.9711 7.2156 1.72479 1.9711 105.58 -145.822 0 2 -3 -0.00916063 0.00184255 -0.00836182 0.795425 18.0197 -2.72619 
2064 129 3 1.008 0.03 4.8313 1.29387 5.78162 54.0136 50.4762 54.964 1 1 1 0.00399512 -0.00645261 -0.029769 0.964702 -9.64525 -11.4866 
2054 129 2 12.01 0.11 5.06506 0.784805 4.82188 54.2474 49.9672 54.0042 1 1 1 0.00481714 -0.00234614 0.00837951 -17.0745 13.1104 16.8073 
8258 517 1 16 -0.4 2.10667 0.768954 3.77313 100.471 0.768954 -45.4092 2 0 -1 -0.00391735 -0.00215992 -0.00282473 8.83235 12.0858 -2.18655 
8262 517 2 12.01 0.11 1.50992 1.94221 4.24014 99.8746 1.94221 -44.9422 2 0 -1 -0.00102359 0.000214965 -0.0013002 10.0438 11.4431 21.5283 
968 61 3 1.008 0.03 7.10335 2.60156 6.57593 7.10335 2.60156 55.7583 0 0 1 0.00746134 0.0106144 -0.000319389 11.4325 27.8474 2.71588 
963 61 2 12.01 0.14 7.66851 3.58515 6.53595 7.66851 3.58515 55.7183 0 0 1 0.00055327 -0.00304559 0.000661242 0.504688 -0.877902 -16.2078 
7725 483 3 1.008 0.03 0.751603 6.22516 2.29777 0.751603 104.59 -145.249 0 2 -3 -0.00688913 0.0118265 0.0175911 -22.7069 -9.6246 5.22806 
7728 483 3 1.008 0.03 6.80913 3.67853 0.855313 6.80913 102.043 -146.692 0 2 -3 0.0104041 -0.00148554 -0.00377643 -1.19193 -9.65095 -7.98652 
961 61 1 16 -0.4 6.90896 4.74979 7.01803 6.90896 4.74979 56.2004 0 0 1 -0.0054553 -0.0037441 -0.00265406 5.7314 -42.3833 41.8193 
7726 483 3 1.008 0.03 5.89764 2.39356 1.53989 5.89764 100.758 -146.007 0 2 -3 0.0124041 -0.0124732 0.000294324 -1.30388 0.321516 12.8836 
962 61 1 16 -0.4 8.25615 5.31607 4.93735 8.25615 5.31607 54.1197 0 0 1 0.000309458 -0.00543795 -0.00437564 -15.7346 -7.19577 15.6627 
7721 483 3 1.008 0.03 3.60422 3.22008 2.45858 3.60422 101.585 -145.088 0 2 -3 -0.00649606 -0.0163077 -0.00313902 -3.08865 -8.05507 3.61839 
8271 517 3 1.008 0.03 2.33446 2.66609 4.34935 100.699 2.66609 -44.833 2 0 -1 0.010961 -0.024716 0.00955544 -11.6395 -0.967348 3.73004 
2062 129 3 1.008 0.03 4.45037 1.29202 4.06393 53.6327 50.4744 53.2463 1 1 1 0.0199019 0.00990433 -0.0165721 10.005 -2.20067 1.94835 
8270 517 3 1.008 0.03 1.05528 1.7275 5.19501 99.42 1.7275 -43.9873 2 0 -1 0.000728463 0.0165472 -0.0169531 6.58041 0.683639 11.3435 
7718 483 2 12.01 0.11 5.83282 3.1851 0.814726 5.83282 101.55 -146.732 0 2 -3 -0.000804915 0.00372078 -0.0011273 8.44328 -4.16651 18.9123 
7716 483 2 12.01 0.14 3.64362 3.57988 1.44169 3.64362 101.945 -146.105 0 2 -3 -0.00624953 0.00209956 -0.00171366 -6.74455 52.2848 5.79389 
964 61 2 12.01 0.14 7.94427 3.92352 5.02484 7.94427 3.92352 54.2072 0 0 1 -0.00191846 -0.00465133 -0.00406773 10.8316 -6.64412 56.8029 
8272 517 3 1.008 0.03 0.685768 2.40948 3.72981 99.0505 2.40948 -45.4525 2 0 -1 -0.00516698 0.00373533 -0.00637315 -1.19106 -5.18532 -21.9249 
2057 129 3 1.008 0.03 6.17523 0.53635 2.65935 55.3576 49.7187 51.8417 1 1 1 0.00559771 0.0163478 -0.0205433 15.7831 -8.87663 -1.29486 
7719 483 3 1.008 0.03 1.66241 4.40906 1.00387 1.66241 102.774 -146.543 0 2 -3 0.00353006 0.0213689 0.0179822 32.1582 10.9342 7.96018 
2247 141 3 1.008 0.03 4.64489 7.78051 2.50028 4.64489 7.78051 51.6826 0 0 1 0.0259912 0.0163023 0.00520224 -12.4433 25.6136 -18.2908 
2252 141 3 1.008 0.03 6.69785 8.19146 1.01339 6.69785 8.19146 50.1957 0 0 1 -0.0205572 -0.0360422 0.0171485 -12.5758 5.59558 -10.3138 
2060 129 3 1.008 0.03 8.56779 0.926557 0.806709 57.7501 50.1089 49.9891 1 1 1 0.00452609 0.0059499 0.0168801 5.16709 -5.135 -12.1625 
3035 190 3 1.008 0.03 0.629952 4.64783 4.18075 49.8123 53.8302 -45.0016 1 1 -1 0.00611051 0.000888042 -0.017786 -6.31933 -0.668019 4.0652 
7722 483 3 1.008 0.03 3.24575 2.89468 0.763448 3.24575 101.259 -146.784 0 2 -3 -0.0204166 -0.013793 0.0122567 3.2243 -31.2746 -21.2111 
5847 366 3 1.008 0.03 2.12953 7.3988 6.69911 2.12953 7.3988 -42.4832 0 0 -1 0.0114991 -0.00444584 -0.0072129 -10.3988 3.48132 1.51262 
5843 366 2 12.01 0.14 1.6928 8.3445 7.05674 1.6928 8.3445 -42.1256 0 0 -1 0.00600649 0.00150849 -0.00283292 -9.36676 -7.89144 10.9271 
966 61 2 12.01 0.11 8.9962 5.43422 3.75964 8.9962 5.43422 52.942 0 0 1 -0.000829757 0.00154291 0.00274039 25.2349 -23.5903 -34.5273 
975 61 3 1.008 0.03 9.17025 6.4653 3.53877 9.17025 6.4653 52.7211 0 0 1 0.023307 -0.00104248 -0.0283278 -4.75211 6.93053 -7.20727 
969 61 3 1.008 0.03 8.74598 3.22297 4.83471 8.74598 3.22297 54.0171 0 0 1 0.00427253 -0.0338436 0.0123623 7.9349 2.35449 -15.311 
976 61 3 1.008 0.03 10.0501 5.03312 3.94365 10.0501 5.03312 53.126 0 0 1 -0.00171615 0.0152011 -0.00095342 -34.6856 5.73526 -13.2037 
2049 129 1 16 -0.4 8.64203 1.58686 2.74341 57.8244 50.7692 51.9258 1 1 1 -0.00385696 0.00136486 0.000106703 10.147 13.5112 -29.3183 
2061 129 3 1.008 0.03 9.23951 2.48577 1.00466 58.4219 51.6681 50.187 1 1 1 0.0375074 0.0053931 -0.0117795 -4.99017 39.7384 -15.9001 
2053 129 2 12.01 0.11 9.21661 1.54376 1.41466 58.399 50.7261 50.597 1 1 1 0.00578474 -0.000484584 -0.00936014 21.4641 -25.7408 41.6563 
8109 507 3 1.008 0.03 12.9888 4.48826 3.3458 62.1712 4.48826 101.71 1 0 2 -0.00969545 0.0400706 -0.00996592 9.28702 -4.09365 -9.69093 
8101 507 2 12.01 0.11 14.0441 4.77028 3.1943 63.2265 4.77028 101.559 1 0 2 -0.0076706 -0.00461429 0.00196726 0.654869 14.8779 19.3866 
8108 507 3 1.008 0.03 14.0958 5.76307 2.70729 63.2781 5.76307 101.072 1 0 2 0.00520428 -0.0091324 -0.0165205 -1.18701 -9.6962 8.00603 
8107 507 3 1.008 0.03 14.4693 4.80769 4.2 63.6517 4.80769 102.565 1 0 2 -0.0106748 -0.00195822 -0.00261291 -9.40655 15.3943 2.51864 
8097 507 1 16 -0.4 14.875 3.8723 2.52115 64.0573 3.8723 100.886 1 0 2 -0.00557712 -0.00396955 -0.00293691 23.3813 -25.7397 -1.61094 
8099 507 2 12.01 0.14 15.9729 3.31067 3.32919 65.1552 3.31067 101.694 1 0 2 0.00326133 -0.00298745 0.00525764 10.7213 37.3583 -19.892 
8106 507 3 1.008 0.03 16.0868 1.76629 1.84434 65.2692 1.76629 100.209 1 0 2 0.00651959 0.00806773 -0.00534604 7.61578 5.6153 2.61491 
10124 636 8 19 -0.16 12.0476 7.00159 5.13025 12.0476 7.00159 54.3126 0 0 1 -0.00343938 0.00429553 -0.0016644 17.3067 7.42185 1.99689 
429 27 3 1.008 0.03 12.5512 2.14501 4.91617 12.5512 51.3274 54.0985 0 1 1 -0.0172825 -1.15509e-05 -0.0220639 -15.7375 6.67185 -1.17993 
421 27 2 12.01 0.11 11.5106 2.46358 5.15833 11.5106 51.6459 54.3407 0 1 1 0.0125171 -0.00158555 0.00444349 36.8552 -13.8276 9.45646 
417 27 1 16 -0.4 11.3118 2.19862 6.53582 11.3118 51.381 55.7182 0 1 1 -0.00562887 0.00694915 -0.00222503 0.552772 3.35661 -6.12462 
427 27 3 1.008 0.03 10.8518 1.9007 4.54299 10.8518 51.083 53.7253 0 1 1 -0.0135118 -0.00313412 0.0210865 -12.4526 -10.817 -8.47008 
428 27 3 1.008 0.03 11.3995 3.49897 4.90566 11.3995 52.6813 54.088 0 1 1 0.00147542 0.00837533 0.00427218 -1.58806 11.6582 -0.972022 
8103 507 3 1.008 0.03 16.6207 4.12816 3.78439 65.8031 4.12816 102.149 1 0 2 0.00181492 -0.0127102 -0.0136562 -15.6744 -23.0424 -15.9559 
8100 507 2 12.01 0.14 16.8007 2.30235 2.49607 65.983 2.30235 100.861 1 0 2 -0.00197857 -0.00421046 -0.0037538 -45.9708 -10.4877 7.21674 
8104 507 3 1.008 0.03 15.5709 2.78281 4.1513 64.7532 2.78281 102.516 1 0 2 -0.0317994 -0.012393 -0.0240782 -12.2447 -11.2583 14.2236 
7936 496 3 1.008 0.03 10.29 5.81092 6.14248 10.29 5.81092 55.3248 0 0 1 0.00362707 0.00849542 -0.0223333 -2.69933 -12.9737 -11.4936 
9441 591 1 16 -0.4 15.495 3.08001 6.58526 15.495 52.2624 55.7676 0 1 1 0.00276288 -0.00899157 -0.00455833 4.84946 7.95336 2.78809 
9445 591 2 12.01 0.11 16.3377 4.19316 7.00315 16.3377 53.3755 56.1855 0 1 1 0.000877452 -0.00378766 -0.00648557 -29.878 -25.0408 -31.001 
423 27 3 1.008 0.03 13.2321 2.78856 7.23633 13.2321 51.9709 56.4187 0 1 1 0.0190847 0.00980587 0.00394563 -9.63078 -2.16492 -2.43368 
9449 591 3 1.008 0.03 14.3998 0.741134 5.64007 14.3998 49.9235 54.8224 0 1 1 -0.00385795 -0.0071288 -0.011636 4.50912 12.4126 -3.79865 
10121 636 7 12.01 0.35 12.437 8.28054 5.06708 12.437 8.28054 54.2494 0 0 1 0.00583862 -0.00707309 -0.00872639 -15.6278 -32.8915 -74.3141 
2059 129 3 1.008 0.03 10.3148 1.25507 1.43052 59.4971 50.4374 50.6129 1 1 1 -0.00741857 0.0061311 0.00722547 -32.6143 -4.14355 -1.16314 
10123 636 8 19 -0.16 13.6972 8.27807 4.62158 13.6972 8.27807 53.8039 0 0 1 0.0019373 -0.00985513 0.00879952 -9.28075 4.05059 4.6093 
967 61 3 1.008 0.03 8.66243 3.41065 7.07409 8.66243 3.41065 56.2564 0 0 1 0.000503107 0.0259992 0.0218042 -32.5002 10.72 -12.6363 
7926 496 2 12.01 0.11 10.2029 6.29073 7.0855 10.2029 6.29073 56.2679 0 0 1 -0.00459621 0.00154064 0.007022 26.652 -9.24397 2.00113 
424 27 3 1.008 0.03 11.9922 4.01112 7.09144 11.9922 53.1935 56.2738 0 1 1 0.0138818 0.00262147 -0.0130161 1.74316 25.2805 -5.85916 
5275 330 3 1.008 0.03 15.0207 7.63647 1.66341 64.203 -41.5459 -47.5189 1 -1 -1 -0.00472583 -0.0171635 0.00433196 5.50018 -10.9452 4.1371 
10117 636 4 14.01 -0.66 9.9205 8.4386 4.46572 9.9205 8.4386 53.6481 0 0 1 0.00258447 0.000980131 -0.000704289 0.0767413 35.887 17.4398 
5269 330 2 12.01 0.11 15.4704 8.58913 1.43667 64.6528 -40.5932 -47.7457 1 -1 -1 -0.00674537 -0.00236399 -0.00476553 -4.18473 -20.0848 -23.1204 
7934 496 3 1.008 0.03 10.8451 7.15333 6.89237 10.8451 7.15333 56.0747 0 0 1 0.00187951 -0.00504552 -0.00248636 -5.75114 2.68836 16.9667 
9452 591 3 1.008 0.03 15.6093 5.02753 6.93844 15.6093 54.2099 56.1208 0 1 1 0.00520098 0.0205973 0.0145896 19.9749 -0.0755617 -0.50112 
419 27 2 12.01 0.14 12.161 3.00392 7.33946 12.161 52.1863 56.5218 0 1 1 -0.00145864 -0.000830402 0.00734962 -12.3954 -35.0567 21.0439 
7922 496 1 16 -0.4 8.86183 6.60875 7.35582 8.86183 6.60875 56.5382 0 0 1 0.00302485 0.00361245 -0.00157062 -9.00318 4.91488 11.4252 
9443 591 2 12.01 0.14 16.0185 1.77141 6.80892 16.0185 50.9538 55.9913 0 1 1 -0.012468 -0.0027272 -0.0036447 5.30688 7.77717 35.4224 
9444 591 2 12.01 0.14 15.1107 0.594698 6.45076 15.1107 49.777 55.6331 0 1 1 -0.0042034 0.0086345 -0.000905066 -4.63315 -42.1218 -18.0308 
9095 569 3 1.008 0.03 10.2235 6.82165 0.505505 -38.9589 56.004 -48.6768 -1 1 -1 0.00642588 -0.0056106 0.0219701 0.693272 0.376707 -14.0884 
8102 507 2 12.01 0.11 18.7066 2.04673 1.3484 67.8889 2.04673 99.7131 1 0 2 -0.0105817 0.00959801 0.00350554 13.1081 28.0555 -3.99807 
8098 507 1 16 -0.4 17.7172 2.99319 1.69409 66.8996 2.99319 100.059 1 0 2 0.00302175 0.00113403 -0.00177015 17.5183 -7.03978 6.25574 
8110 507 3 1.008 0.03 19.0755 1.54131 2.20588 68.2579 1.54131 100.571 1 0 2 -0.011732 0.0311398 -0.00655506 14.4948 -4.71546 16.6832 
9451 591 3 1.008 0.03 17.223 4.30019 6.32467 17.223 53.4825 55.507 0 1 1 -0.0188114 -0.0489288 -0.026479 -16.0557 1.9239 14.2625 
5265 330 1 16 -0.4 16.8826 8.577 1.37694 66.0649 -40.6053 -47.8054 1 -1 -1 0.00244197 -0.00533456 0.00571858 -6.41104 16.1224 -5.96477 
5271 330 3 1.008 0.03 17.0008 8.13785 3.41295 66.1831 -41.0445 -45.7694 1 -1 -1 -0.00361343 -0.0258292 -0.0445393 -3.19787 -0.184192 -2.99096 
9386 587 3 1.008 0.03 24.4282 3.46587 3.04978 -24.7541 -45.7165 3.04978 -1 -1 0 0.00523022 0.0242261 0.00926491 -4.429 -10.6501 10.3768 
10138 637 8 19 -0.16 23.6214 1.46048 4.66787 -25.5609 50.6428 4.66787 -1 1 0 -0.00549789 0.00213772 -0.000541031 9.7992 -22.9775 -2.93598 
9385 587 3 1.008 0.03 24.8737 4.89178 2.25014 -24.3086 -44.2906 2.25014 -1 -1 0 0.0172468 -0.00625201 0.00847494 11.1662 3.35439 6.98733 
8105 507 3 1.008 0.03 17.1833 1.46873 3.12614 66.3657 1.46873 101.491 1 0 2 0.0363563 -0.0239716 0.0100311 1.60381 17.894 -1.44458 
3204 201 2 12.01 0.14 22.7332 6.85831 3.9424 -75.6315 154.405 3.9424 -2 3 0 0.0040726 -0.00231984 0.0018907 -6.29487 1.03255 -14.626 
5272 330 3 1.008 0.03 17.4748 6.89782 2.28336 66.6572 -42.2845 -46.899 1 -1 -1 -0.00429102 -0.00416659 0.00679498 1.55412 -11.3013 -1.19044 
313 20 3 1.008 0.03 21.4043 4.64991 5.75155 -27.778 -142.897 104.116 -1 -3 2 0.000623563 0.00656521 -0.00850956 0.37362 -1.92633 -4.93747 
308 20 2 12.01 0.14 20.5707 4.40665 6.40377 -28.6117 -143.14 104.768 -1 -3 2 0.0036099 0.000657762 0.010929 16.1074 -12.1683 -2.29344 
306 20 1 16 -0.4 19.7574 3.4444 5.77078 -29.425 -144.103 104.135 -1 -3 2 -0.00737181 0.00403897 0.000954757 -8.17823 -9.4915 -6.56322 
310 20 2 12.01 0.11 20.3982 2.20177 5.48861 -28.7841 -145.345 103.853 -1 -3 2 -0.00138963 0.00363386 -0.00390286 16.1952 -17.0196 20.0316 
318 20 3 1.008 0.03 20.8342 1.71193 6.39949 -28.3482 -145.835 104.764 -1 -3 2 -0.0154697 0.00402583 0.0521763 -5.71641 14.3454 -16.8327 
319 20 3 1.008 0.03 19.7292 1.46775 5.09121 -29.4531 -146.079 103.456 -1 -3 2 -0.00824879 0.0134713 0.00670391 -18.4541 -3.34585 0.151365 
320 20 3 1.008 0.03 21.126 2.2004 4.68652 -28.0564 -145.347 103.051 -1 -3 2 -0.000261395 0.0183476 0.00771974 9.27258 13.659 1.68053 
311 20 3 1.008 0.03 19.1173 5.90385 5.62352 -30.0651 -141.643 103.988 -1 -3 2 -0.00234528 0.0144158 -0.00999369 14.5708 -17.8738 46.1556 
312 20 3 1.008 0.03 20.4026 6.56854 6.47494 -28.7798 -140.979 104.84 -1 -3 2 -0.0114169 -0.027534 0.0167588 2.51448 -10.6426 9.36191 
307 20 2 12.01 0.14 19.7517 5.68481 6.57325 -29.4306 -141.862 104.938 -1 -3 2 -0.00153984 -0.000755408 -0.00448577 -5.5881 37.8123 -64.5769 
3203 201 2 12.01 0.14 21.7924 6.1911 2.92704 -76.5723 153.738 2.92704 -2 3 0 0.00326739 0.00210978 0.000259099 41.428 -0.882793 -32.694 
3207 201 3 1.008 0.03 20.8708 5.99777 3.3917 -77.4939 153.545 3.3917 -2 3 0 -0.00049755 0.0271522 0.00594432 -24.6899 -2.94441 10.1507 
3201 201 1 16 -0.4 21.6182 7.05038 1.7711 -76.7465 154.597 1.7711 -2 3 0 0.00701301 0.00261034 -0.000459157 5.57689 5.1862 -8.68876 
3214 201 3 1.008 0.03 24.659 7.24516 5.56552 -73.7057 154.792 5.56552 -2 3 0 0.0118758 -0.00406764 -0.00225772 4.77859 -11.587 -7.02957 
5268 330 2 12.01 0.14 18.9765 8.4878 2.57016 68.1588 -40.6945 -46.6122 1 -1 -1 0.00323617 -0.00430175 0.00361741 -26.588 -23.7459 -32.9955 
5273 330 3 1.008 0.03 19.6391 7.68916 2.88489 68.8215 -41.4932 -46.2975 1 -1 -1 -0.00946321 0.0119966 -0.0105741 -5.98364 4.83395 11.5704 
5267 330 2 12.01 0.14 17.4994 7.9577 2.45669 66.6818 -41.2246 -46.7257 1 -1 -1 0.00400619 0.00159687 -0.00623825 28.4391 8.05055 25.6842 
3202 201 1 16 -0.4 24.0718 6.45006 3.71063 -74.2929 153.997 3.71063 -2 3 0 0.000180696 0.00786098 0.00133751 -10.8421 -9.5262 1.28903 
3210 201 3 1.008 0.03 22.3803 6.6917 4.94243 -75.9844 154.239 4.94243 -2 3 0 -7.21348e-05 -0.00385858 0.0077079 2.90287 -9.26989 11.5814 
3205 201 2 12.01 0.11 22.686 7.11099 0.779206 -75.6787 154.658 0.779206 -2 3 0 0.00400407 0.00175808 0.00735825 5.08792 -21.3057 22.7982 
3208 201 3 1.008 0.03 22.1633 5.20269 2.5974 -76.2014 152.75 2.5974 -2 3 0 -0.00549013 0.023449 0.00552528 -2.28327 8.78113 5.7814 
3209 201 3 1.008 0.03 22.62 7.91534 3.82056 -75.7447 155.462 3.82056 -2 3 0 -0.0216707 -0.0117958 -0.000754748 3.58762 14.8456 -1.54532 
9447 591 3 1.008 0.03 16.9363 1.69017 6.26953 16.9363 50.8725 55.4519 0 1 1 -0.0046058 -0.00414571 0.0248851 13.8318 -1.40209 -7.95851 
314 20 3 1.008 0.03 21.0667 3.96929 7.28763 -28.1157 -143.578 105.652 -1 -3 2 -0.001261 0.0256252 0.00195254 -12.4802 9.64809 -1.82943 
8111 507 3 1.008 0.03 18.2431 1.27183 0.801034 67.4255 1.27183 99.1657 1 0 2 0.00966346 0.0118629 -0.028493 -1.92644 -14.9936 -25.4731 
8112 507 3 1.008 0.03 19.5821 2.52489 0.86442 68.7645 2.52489 99.2291 1 0 2 -0.00296192 0.011752 0.0156573 -13.0033 -7.89347 -2.54073 
9383 587 3 1.008 0.03 24.2761 3.47449 0.660845 -24.9063 -45.7079 0.660845 -1 -1 0 0.028944 -0.00181644 -0.00752864 13.8945 -13.7878 -4.61847 
5695 356 3 1.008 0.03 23.2198 6.63296 7.31479 23.2198 154.18 56.4971 0 3 1 0.0098726 0.00735059 -0.00972089 -5.44403 3.25415 7.08498 
3212 201 3 1.008 0.03 23.6658 7.48308 1.11969 -74.6989 155.03 1.11969 -2 3 0 0.0304617 0.0306825 0.0062134 -11.3643 2.92481 4.00864 
317 20 3 1.008 0.03 17.3805 6.83726 7.28002 -31.8018 -140.71 105.645 -1 -3 2 -0.00628264 0.0100693 -0.00376072 27.1145 10.5287 15.486 
3213 201 3 1.008 0.03 22.8721 6.07779 0.543867 -75.4926 153.625 0.543867 -2 3 0 -0.0324052 -0.00125046 0.0213653 4.13592 -8.68731 -4.50127 
3788 237 3 1.008 0.03 4.63212 16.1572 1.64958 4.63212 65.3395 1.64958 0 1 0 0.000581735 -0.0270834 -0.00933727 -10.4672 -6.205 -0.927402 
3787 237 3 1.008 0.03 3.11315 16.3878 0.767015 3.11315 65.5702 0.767015 0 1 0 0.00894473 0.00927634 0.0173218 12.9483 -12.6368 0.582483 
3781 237 2 12.01 0.11 3.78783 15.6061 1.18818 3.78783 64.7885 1.18818 0 1 0 0.00292007 -0.0126206 0.000110688 -16.9007 49.3339 14.0569 
3663 229 3 1.008 0.03 2.15459 16.6588 4.51078 2.15459 65.8411 4.51078 0 1 0 0.0130436 -0.00372317 0.0225023 28.6692 -10.3815 28.8466 
9868 619 8 19 -0.16 2.52471 9.28903 0.702723 2.52471 58.4714 0.702723 0 1 0 -0.00168243 -0.000615313 0.00496001 4.53625 -0.490686 -11.114 
5841 366 1 16 -0.4 2.61496 9.32101 6.72449 2.61496 9.32101 -42.4579 0 0 -1 0.00187596 0.0114564 0.00220102 28.1619 23.5273 -3.24445 
3782 237 2 12.01 0.11 1.27853 12.0608 4.44799 1.27853 61.2432 4.44799 0 1 0 -0.00324252 -0.00242237 -0.00132708 -10.9072 13.4089 -43.8684 
8324 521 2 12.01 0.14 5.47206 14.5088 6.53487 103.837 63.6911 55.7172 2 1 1 0.00950422 0.000438024 -0.00790368 -18.9035 -61.5216 4.30584 
10129 636 8 19 -0.16 6.94651 10.8298 4.40671 6.94651 10.8298 53.5891 0 0 1 0.00503728 0.00424394 0.000667599 57.8204 -16.3157 11.3624 
8321 521 1 16 -0.4 3.29738 15.6952 6.75825 101.662 64.8775 55.9406 2 1 1 0.000577045 -0.00510513 0.00521482 0.672888 -6.17614 -15.2179 
9869 619 8 19 -0.16 0.879399 10.1709 1.60171 0.879399 59.3533 1.60171 0 1 0 0.0032448 0.00392941 -0.00294346 -1.10493 14.1777 -3.54198 
9867 619 8 19 -0.16 2.83425 10.541 2.34759 2.83425 59.7234 2.34759 0 1 0 0.0010492 -0.00425589 0.00220072 -10.3449 16.2473 -28.1366 
3778 237 1 16 -0.4 1.87382 12.9731 3.51056 1.87382 62.1554 3.51056 0 1 0 -0.0015817 -0.0017404 -0.00481964 -16.8861 11.0133 -3.77575 
3786 237 3 1.008 0.03 3.36689 13.6873 4.72123 3.36689 62.8696 4.72123 0 1 0 0.00548006 0.0101464 0.00808775 -9.78921 -12.2287 -1.16989 
3780 237 2 12.01 0.14 3.25116 13.1037 3.79753 3.25116 62.286 3.79753 0 1 0 -0.00303428 -0.000799794 -0.0038208 5.26823 31.6887 5.82248 
3785 237 3 1.008 0.03 3.79712 12.1895 3.859 3.79712 61.3718 3.859 0 1 0 -4.69618e-05 0.0258484 0.00341217 4.67608 -17.1201 6.32912 
3783 237 3 1.008 0.03 4.4711 13.4125 1.99687 4.4711 62.5948 1.99687 0 1 0 0.0239048 -0.0472575 0.0177872 -5.75662 -7.99613 4.47894 
3779 237 2 12.01 0.14 3.94321 13.9783 2.76909 3.94321 63.1607 2.76909 0 1 0 -0.00108245 0.000719876 -0.0002062 1.36215 2.30868 -11.5149 
3777 237 1 16 -0.4 3.00883 14.8744 2.13254 3.00883 64.0567 2.13254 0 1 0 -0.000602345 0.00367501 0.00642587 11.1835 -12.3819 7.89992 
3784 237 3 1.008 0.03 4.76562 14.4766 3.27522 4.76562 63.659 3.27522 0 1 0 0.00197948 0.0139176 -0.0106287 -0.733465 8.82779 0.808271 
8326 521 2 12.01 0.11 7.22259 14.9159 5.15185 105.587 64.0982 54.3342 2 1 1 0.00911064 -0.00163824 0.00617773 35.0327 -20.259 -8.25823 
8335 521 3 1.008 0.03 6.97919 14.3091 4.24847 105.344 63.4914 53.4308 2 1 1 0.0122457 -0.0367522 -0.00724355 2.84081 5.46574 16.3735 
8322 521 1 16 -0.4 6.06857 15.4512 5.7488 104.433 64.6335 54.9311 2 1 1 -0.00224593 0.00221679 0.0018622 16.4827 26.6512 -5.18685 
10466 677 9 24.305 2 1.12857 14.3137 2.11504 1.12857 63.4961 2.11504 0 1 0 0.00226886 -0.00425207 0.000426689 -3.28467 8.16138 -1.68188 
8330 521 3 1.008 0.03 5.07091 13.7304 5.84292 103.436 62.9127 55.0253 2 1 1 0.000991524 -0.0158855 0.010625 7.83903 10.601 19.4558 
3790 237 3 1.008 0.03 1.21857 12.4414 5.43599 1.21857 61.6238 5.43599 0 1 0 -0.00600042 -0.00338338 0.0301636 21.8619 -2.52773 22.3701 
9866 619 7 12.01 0.35 2.11677 10.4338 1.20342 2.11677 59.6162 1.20342 0 1 0 -0.00583785 -0.00104809 5.65039e-05 1.22573 -45.3185 36.6456 
8329 521 3 1.008 0.03 6.17128 13.9841 7.21956 104.536 63.1665 56.4019 2 1 1 0.02027 -0.00228078 0.00516242 -4.00933 10.3786 -13.4879 
8336 521 3 1.008 0.03 7.89519 15.7022 4.80926 106.26 64.8846 53.9916 2 1 1 0.011437 -0.00963256 0.0191589 -6.76008 4.94735 -2.10856 
3792 237 3 1.008 0.03 1.76181 11.1007 4.22344 1.76181 60.2831 4.22344 0 1 0 -0.00444028 0.0155111 -0.0176062 -9.59544 -3.81573 21.6828 
10131 636 8 19 -0.16 8.43936 10.3021 3.04831 8.43936 10.3021 52.2307 0 0 1 -0.00522685 -0.00151434 -0.00111065 11.2139 -14.0385 -18.9397 
10128 636 7 12.01 0.35 8.30907 10.5598 4.31497 8.30907 10.5598 53.4973 0 0 1 0.00360737 -0.00219563 -0.00599727 -85.5561 16.2318 -2.75961 
3650 229 1 16 -0.4 0.595162 15.8017 3.39085 0.595162 64.9841 3.39085 0 1 0 -0.0054409 0.00300132 0.00599865 4.53379 -27.814 5.1989 
9864 619 6 16 -0.53 1.65116 12.9194 0.7571 1.65116 62.1017 0.7571 0 1 0 0.00458554 -0.00330458 0.0025557 -10.1289 -1.73397 10.3898 
8334 521 3 1.008 0.03 7.89886 14.3354 5.85222 106.264 63.5177 55.0346 2 1 1 0.0178227 -0.0220655 0.00227127 -22.1029 10.3971 -15.9402 
4493 281 3 1.008 0.03 8.28398 15.6173 1.83874 106.649 -33.565 149.386 2 -1 3 0.00756718 -0.00442802 -0.0179493 -8.04666 -10.5343 10.1547 
9874 619 8 19 -0.16 5.91883 10.9754 1.39117 5.91883 60.1577 1.39117 0 1 0 -0.000565521 -0.00154686 -9.54428e-05 7.90247 1.90126 5.67319 
5852 366 3 1.008 0.03 3.16948 11.2435 6.94046 3.16948 11.2435 -42.2419 0 0 -1 0.000771161 -0.0137276 -6.97347e-05 11.5258 14.5917 -2.40678 
8331 521 3 1.008 0.03 1.4817 16.5676 7.04423 99.8464 65.7499 56.2266 2 1 1 -0.00402411 0.00808888 0.00539612 4.45293 3.60398 2.20619 
5845 366 2 12.01 0.11 2.48304 10.5714 7.39794 2.48304 10.5714 -41.7844 0 0 -1 -0.00481809 -0.00525866 -0.00484303 -18.9502 -37.4639 -26.3157 
5853 366 3 1.008 0.03 1.45611 10.8418 7.10923 1.45611 10.8418 -42.0731 0 0 -1 -0.0197982 0.0163724 0.0101043 8.18564 14.7849 20.5287 
8323 521 2 12.01 0.14 4.39887 15.0841 7.42787 102.764 64.2664 56.6102 2 1 1 -0.00211205 0.0118411 -0.000556905 -9.53653 55.2214 12.207 
4489 281 3 1.008 0.03 12.681 16.4377 2.44962 111.046 -32.7446 149.997 2 -1 3 0.0137059 0.00348921 0.0132142 0.0798994 -3.38648 4.21421 
10119 636 6 16 -0.53 11.5884 8.60802 2.61599 11.5884 8.60802 51.7983 0 0 1 -0.00356233 -0.00264268 0.000272413 3.60073 1.82099 -6.57611 
715 45 3 1.008 0.03 13.4234 11.2254 6.26319 13.4234 -87.1393 6.26319 0 -2 0 0.00393417 0.0267517 0.0149788 -18.6732 -29.4318 -5.939 
2895 181 3 1.008 0.03 11.2965 14.8227 7.3256 11.2965 14.8227 -41.8567 0 0 -1 -0.0159834 -0.0177596 -0.0219317 -5.75705 10.0409 -10.8641 
847 53 3 1.008 0.03 13.3194 11.3379 0.497692 62.5017 60.5202 -48.6847 1 1 -1 0.0227915 -0.000501344 -0.0175323 -3.93219 -1.41665 6.0888 
709 45 2 12.01 0.11 13.6843 12.2021 5.99556 13.6843 -86.1626 5.99556 0 -2 0 -0.00174568 0.00020865 0.00102947 -3.91205 55.4768 -5.55832 
10122 636 8 19 -0.16 12.4353 8.70186 6.26254 12.4353 8.70186 55.4449 0 0 1 -0.00307398 0.00275335 0.00163272 -0.870805 23.8921 44.8512 
10130 636 8 19 -0.16 8.89457 11.7242 4.47519 8.89457 11.7242 53.6575 0 0 1 -0.00349175 -1.05519e-05 0.00133112 12.4943 2.59996 14.0007 
10125 636 5 32.06 1.02 8.87727 9.15942 5.40302 8.87727 9.15942 54.5854 0 0 1 -0.00217227 -0.00165381 -0.00175878 24.1036 16.0519 -28.8435 
10126 636 6 16 -0.53 9.38803 9.7764 6.60917 9.38803 9.7764 55.7915 0 0 1 -0.00761551 -0.00112835 0.00045917 -5.83426 -10.0778 -5.4814 
10118 636 5 32.06 1.02 11.2236 9.12747 3.90879 11.2236 9.12747 53.0911 0 0 1 -0.000478435 0.000374805 -2.39264e-05 9.06616 -42.2485 21.0544 
4494 281 3 1.008 0.03 11.4318 13.554 2.22226 109.796 -35.6284 149.769 2 -1 3 -0.00765602 -0.0268592 0.0154108 -1.15523 14.2815 7.77605 
4496 281 3 1.008 0.03 12.9537 13.0575 2.8639 111.318 -36.1249 150.411 2 -1 3 0.00944338 0.0100586 0.00424864 -4.32105 4.68413 -4.48439 
4951 310 3 1.008 0.03 14.9627 15.0321 4.96501 64.1451 15.0321 4.96501 1 0 0 0.00381374 -0.0112081 -0.00869735 -10.8325 -14.1277 0.321892 
10120 636 6 16 -0.53 11.3872 10.5144 4.17453 11.3872 10.5144 53.3569 0 0 1 0.00182649 -0.000736375 0.00462741 5.94558 24.989 1.54275 
706 45 1 16 -0.4 16.5447 12.6511 3.49798 16.5447 -85.7136 3.49798 0 -2 0 -0.00382442 -0.00156487 0.000358411 -4.08925 -0.00852308 15.106 
4486 281 2 12.01 0.11 12.387 13.9588 2.58995 110.752 -35.2235 150.137 2 -1 3 0.00532174 0.00392114 0.000178621 43.9139 -22.368 -34.1423 
708 45 2 12.01 0.14 15.9075 11.4383 3.9649 15.9075 -86.9264 3.9649 0 -2 0 -0.00209122 -0.00486204 -0.00385235 36.4438 31.9262 4.13508 
4482 281 1 16 -0.4 12.4665 14.7757 3.7247 110.831 -34.4067 151.272 2 -1 3 -0.00184932 -0.00294597 0.0022492 -3.1261 4.06875 3.26293 
4495 281 3 1.008 0.03 12.9946 14.425 1.74132 111.359 -34.7573 149.288 2 -1 3 -0.00336321 0.000371501 0.0260312 -22.3483 -18.4248 20.8944 
719 45 3 1.008 0.03 16.5355 11.8493 1.59944 16.5355 -86.5154 1.59944 0 -2 0 -0.0156637 -0.00758785 0.00417305 19.7943 7.90536 3.01078 
714 45 3 1.008 0.03 14.9589 11.5053 3.5825 14.9589 -86.8594 3.5825 0 -2 0 0.0114211 -0.0203548 0.00337823 -41.6416 -7.7941 -17.1343 
707 45 2 12.01 0.14 15.8565 11.3438 5.49119 15.8565 -87.0209 5.49119 0 -2 0 0.00650893 -0.0020664 0.00814223 -10.6462 7.5839 35.1707 
4947 310 2 12.01 0.14 15.603 15.8667 5.1425 64.7854 15.8667 5.1425 1 0 0 -0.00116597 -0.00604699 -0.0044576 -30.5106 28.0124 -21.4551 
4484 281 2 12.01 0.14 12.1505 16.0905 3.34715 110.515 -33.0918 150.894 2 -1 3 -0.00738217 -0.00797501 0.000941493 24.1047 62.4646 22.0754 
712 45 3 1.008 0.03 15.3927 10.4061 5.85364 15.3927 -87.9586 5.85364 0 -2 0 -0.00705978 0.012231 0.027136 16.1555 1.0264 -11.6711 
4481 281 1 16 -0.4 10.3892 15.9697 1.77733 108.754 -33.2126 149.324 2 -1 3 -0.00669744 -0.00454855 -0.00371055 -9.47655 -15.9031 0.680925 
705 45 1 16 -0.4 15.0865 12.3395 6.19205 15.0865 -86.0252 6.19205 0 -2 0 0.00279414 -0.00677481 0.00055074 3.4696 3.59202 -22.3876 
5276 330 3 1.008 0.03 14.9815 9.27103 2.11013 64.1639 -39.9113 -47.0722 1 -1 -1 0.00444219 -0.00122571 0.0205126 3.47167 14.7677 2.73655 
4949 310 2 12.01 0.11 14.5151 16.2256 7.26302 63.6975 16.2256 7.26302 1 0 0 -0.00397511 0.00554402 -0.000972836 -40.8644 0.0652511 23.3326 
4955 310 3 1.008 0.03 13.5686 16.0324 6.6971 62.751 16.0324 6.6971 1 0 0 0.0233661 -0.0170983 0.0255131 23.1931 3.37543 3.70183 
4945 310 1 16 -0.4 15.7 16.2472 6.47411 64.8823 16.2472 6.47411 1 0 0 -0.00137113 -0.00207791 -0.00300042 25.1923 3.83221 37.1564 
2886 181 2 12.01 0.11 10.96 15.8314 7.00476 10.96 15.8314 -42.1776 0 0 -1 0.00111893 -0.00565799 0.0149778 -23.2396 -18.2904 -5.81542 
2894 181 3 1.008 0.03 11.1807 16.0519 5.92381 11.1807 16.0519 -43.2585 0 0 -1 -0.00822724 -0.0146528 -0.00425461 0.0686616 -11.0983 24.935 
2896 181 3 1.008 0.03 9.8519 15.9179 7.15944 9.8519 15.9179 -42.0229 0 0 -1 0.0177461 0.000316606 -0.0335617 20.1915 -13.7753 -4.93049 
713 45 3 1.008 0.03 16.4121 10.5813 3.56241 16.4121 -87.7834 3.56241 0 -2 0 -0.00475858 0.0152217 0.0066433 4.03914 -10.8507 -3.53637 
717 45 3 1.008 0.03 13.2519 12.65 5.03639 13.2519 -85.7147 5.03639 0 -2 0 0.0166342 0.00061042 -0.00907138 18.275 -26.6624 25.7514 