ITEM: TIMESTEP
150000
ITEM: NUMBER OF ATOMS
10479
ITEM: BOX BOUNDS pp pp pp
4.0882558190751794e-01 4.9591174418091420e+01
4.0882558190751794e-01 4.9591174418091420e+01
4.0882558190751794e-01 4.9591174418091420e+01
ITEM: ATOMS id mol type mass q x y z xu yu zu ix iy iz vx vy vz fx fy fz 
5363 336 2 12.01 0.14 3.88343 4.7947 3.7467 -94.4813 -44.3876 3.7467 -2 -1 0 0.00267685 0.00265545 -0.000620696 -28.6468 -8.6898 -20.8236 
5361 336 1 16 -0.4 2.67278 4.82238 4.49931 -95.6919 -44.36 4.49931 -2 -1 0 0.0024563 -0.00647608 0.00358222 -9.6033 0.900806 9.62267 
5364 336 2 12.01 0.14 4.32325 6.16667 3.18486 -94.0415 -43.0157 3.18486 -2 -1 0 0.00779953 -0.00618239 0.0031676 -66.7112 -6.51678 -32.6465 
5369 336 3 1.008 0.03 4.32491 6.92968 3.93543 -94.0398 -42.2527 3.93543 -2 -1 0 0.00147904 -0.00823926 0.00457414 6.46513 5.94731 12.6901 
5362 336 1 16 -0.4 3.3528 6.56958 2.12987 -95.0119 -42.6128 2.12987 -2 -1 0 0.00436583 0.000151435 -0.00328942 32.1179 -7.89741 23.9338 
5370 336 3 1.008 0.03 5.28499 6.05252 2.77074 -93.0797 -43.1298 2.77074 -2 -1 0 -0.0148697 0.0233655 -0.0241425 24.5769 1.97976 -8.70595 
5374 336 3 1.008 0.03 3.73 8.53532 2.34286 -94.6347 -40.647 2.34286 -2 -1 0 -0.01469 -0.0311037 -0.043091 4.05295 13.8614 9.16565 
5668 355 2 12.01 0.14 8.35704 0.815805 3.08788 8.35704 246.728 3.08788 0 5 0 -0.000260806 -0.00128322 0.00481255 -35.4505 -21.5162 -31.187 
5666 355 1 16 -0.4 7.74067 1.37275 4.25111 7.74067 247.284 4.25111 0 5 0 -0.00331586 0.00437077 -0.00388849 0.670378 -11.6263 -10.7148 
5366 336 2 12.01 0.11 3.74685 7.81084 1.55958 -94.6178 -41.3715 1.55958 -2 -1 0 0.00310691 -0.00569411 -0.00709486 18.1785 -31.3542 39.5293 
5367 336 3 1.008 0.03 4.55288 4.45841 4.46662 -93.8118 -44.7239 4.46662 -2 -1 0 -0.0189891 -0.00423642 -0.00555734 28.0386 -4.65622 20.2092 
1575 99 3 1.008 0.03 5.61304 5.60444 6.57124 54.7954 -43.5779 55.7536 1 -1 1 0.00271962 0.00145739 -0.00165255 -15.7953 5.39499 5.98872 
1571 99 2 12.01 0.14 6.54431 5.15835 6.31728 55.7267 -44.024 55.4996 1 -1 1 -0.00395848 -0.00308597 0.0128757 32.3859 35.6939 -10.6049 
7692 481 3 1.008 0.03 0.453524 2.4428 0.651147 0.453524 100.807 49.8335 0 2 1 0.0222046 -0.0345973 -0.0167455 -8.25875 26.5697 15.766 
5368 336 3 1.008 0.03 3.88462 3.95394 3.02513 -94.4801 -45.2284 3.02513 -2 -1 0 0.0322033 -0.0148939 0.01408 -1.08223 14.891 0.686541 
1573 99 2 12.01 0.11 7.75299 4.79601 4.33979 56.9353 -44.3863 53.5221 1 -1 1 0.0027138 0.00821248 -0.00025028 -5.39056 -64.2926 -42.2365 
1581 99 3 1.008 0.03 7.23369 3.79935 4.08315 56.416 -45.383 53.2655 1 -1 1 -0.0200495 -0.00326638 -0.0148146 16.628 38.0665 13.852 
1569 99 1 16 -0.4 6.85684 5.62553 5.03195 56.0392 -43.5568 54.2143 1 -1 1 0.000595936 -0.00351692 -0.00402417 -6.84416 8.07901 -11.8058 
1572 99 2 12.01 0.14 7.67411 5.83729 7.16366 56.8565 -43.3451 56.346 1 -1 1 0.000764618 0.00212008 -0.00279274 -14.097 -30.5438 37.2456 
1576 99 3 1.008 0.03 6.38722 4.09547 6.33717 55.5696 -45.0869 55.5195 1 -1 1 -0.0186022 0.00385 0.0272456 9.26592 -12.9292 5.9552 
8680 543 3 1.008 0.03 3.88236 1.64899 1.54774 -45.3 50.8313 99.9124 -1 1 2 -0.00134066 0.0246702 0.0260111 10.4547 -16.1718 -14.2208 
1579 99 3 1.008 0.03 8.0897 5.13115 3.34566 57.272 -44.0512 52.528 1 -1 1 0.00726415 0.0106279 0.0239879 -10.4937 10.7437 9.06513 
5365 336 2 12.01 0.11 1.438 4.62026 3.80337 -96.9267 -44.5621 3.80337 -2 -1 0 -0.00253968 0.00333883 -0.00198282 29.7279 27.042 -17.8847 
2438 153 2 12.01 0.11 4.01379 8.38888 7.17655 102.378 57.5712 56.3589 2 1 1 0.000439408 -0.00389874 0.0070708 1.59392 -34.5787 -33.9844 
5373 336 3 1.008 0.03 1.19542 5.58205 3.2689 -97.1693 -43.6003 3.2689 -2 -1 0 0.018902 -0.00944889 0.00802851 -0.0771179 -26.1863 8.36198 
4088 256 3 1.008 0.03 4.08303 3.7348 7.19668 -94.2817 -45.4476 7.19668 -2 -1 0 -0.0238628 0.014176 0.00267118 -26.4926 -26.5064 37.2901 
2448 153 3 1.008 0.03 3.71446 7.33499 7.18293 102.079 56.5173 56.3653 2 1 1 -0.0297936 -0.0133009 -0.00941068 -1.76022 4.28987 2.70616 
8679 543 3 1.008 0.03 5.55642 0.948377 1.53031 -43.6259 50.1307 99.895 -1 1 2 0.0207519 0.0103727 0.0214964 -11.0121 2.44641 -5.28325 
4089 256 3 1.008 0.03 3.09884 1.4064 6.70827 -95.2659 -47.7759 6.70827 -2 -1 0 -0.0200226 0.00918606 0.00590434 4.24213 17.1255 19.8651 
8675 543 2 12.01 0.14 4.48711 0.710241 1.44342 -44.6952 49.8926 99.8081 -1 1 2 0.00856724 0.00472773 0.00471114 2.91645 3.09384 67.7296 
5679 355 3 1.008 0.03 6.69682 0.762973 5.89398 6.69682 246.675 5.89398 0 5 0 -0.0127074 0.00517631 -0.0039138 16.2373 -9.01709 -10.8717 
9420 589 3 1.008 0.03 1.70929 0.953053 4.61958 1.70929 0.953053 102.984 0 0 2 -0.00889061 -0.0139488 -0.00296839 4.92311 -0.773754 -24.1302 
5317 333 2 12.01 0.11 1.51412 8.30751 4.53715 50.6965 106.672 53.7195 1 2 1 0.0081665 0.00210087 -0.000845304 -24.6607 -12.0957 59.8381 
7685 481 2 12.01 0.11 0.423396 1.40565 0.499257 0.423396 99.7704 49.6816 0 2 1 0.00465427 -0.00246012 0.00418428 2.70882 -49.4687 -49.2747 
8681 543 3 1.008 0.03 4.30517 0.514625 3.60475 -44.8772 49.697 101.969 -1 1 2 0.00330374 0.00965219 0.00657114 -6.25397 8.12358 12.8453 
5371 336 3 1.008 0.03 1.58793 3.80091 3.10323 -96.7768 -45.3814 3.10323 -2 -1 0 -0.00802629 0.0137429 -0.0114524 -6.41937 -0.154049 -4.00688 
2434 153 1 16 -0.4 4.84871 8.51251 6.04321 103.213 57.6949 55.2256 2 1 1 0.00241703 0.00139 0.00569831 -6.68412 -2.9918 8.44417 
5323 333 3 1.008 0.03 0.889599 7.72394 3.8536 50.0719 106.089 53.036 1 2 1 0.0104397 -0.0176853 -0.0184692 2.89338 -1.2387 4.16055 
5375 336 3 1.008 0.03 4.74673 7.70658 1.1748 -93.618 -41.4758 1.1748 -2 -1 0 0.00570932 -0.00350091 0.00870299 7.80741 4.83113 -8.67117 
5376 336 3 1.008 0.03 3.09496 8.14601 0.854069 -95.2697 -41.0363 0.854069 -2 -1 0 -0.0256104 -0.0124809 -0.00370538 -29.4705 11.3584 -38.1492 
5325 333 3 1.008 0.03 2.39453 7.69377 4.83882 51.5769 106.058 54.0212 1 2 1 -0.0200843 -0.0058923 -0.011295 -13.6493 9.49405 -8.0917 
9419 589 3 1.008 0.03 0.611339 1.85722 5.46891 0.611339 1.85722 103.834 0 0 2 0.000184875 0.0288269 -0.00949232 -6.0247 8.57694 3.52644 
5372 336 3 1.008 0.03 0.661233 4.34776 4.49598 -97.7035 -44.8346 4.49598 -2 -1 0 -0.0102534 0.00678464 -0.0164763 -7.61693 0.286796 3.83135 
9413 589 2 12.01 0.11 0.739214 0.876609 5.06139 0.739214 0.876609 103.426 0 0 2 -0.000319604 0.00645229 0.00653534 37.9671 -21.1102 53.2642 
7358 460 3 1.008 0.03 7.68436 6.55318 0.794454 -41.498 -91.8115 99.1592 -1 -2 2 -0.00825576 -0.0114196 0.0176725 5.37557 -5.72869 8.43782 
6698 419 3 1.008 0.03 0.550727 4.33794 7.29529 0.550727 53.5203 -41.8871 0 1 -1 0.00839396 0.00402047 -0.00866519 4.66746 -1.51296 -3.0787 
5665 355 1 16 -0.4 7.36591 2.40785 1.67054 7.36591 248.32 1.67054 0 5 0 0.000524703 0.00391499 -0.00380719 -6.34227 7.10987 -24.0265 
266 17 3 1.008 0.03 15.4331 0.449386 6.79528 64.6154 0.449386 6.79528 1 0 0 0.0188022 -0.00670502 0.0186597 -11.7948 -6.71122 25.4068 
1577 99 3 1.008 0.03 8.67251 5.94858 6.69232 57.8549 -43.2338 55.8747 1 -1 1 0.0185575 0.0108246 -0.00450515 -14.1612 -1.58992 -0.120018 
1580 99 3 1.008 0.03 8.68495 4.53096 4.82271 57.8673 -44.6514 54.0051 1 -1 1 0.00472477 -0.00298996 0.00856203 0.455308 3.39225 13.0664 
5671 355 3 1.008 0.03 9.17345 1.28428 1.17491 9.17345 247.196 1.17491 0 5 0 0.023349 -0.00862629 0.0287827 -19.2755 3.97387 -10.1194 
798 50 3 1.008 0.03 12.1969 0.775755 4.93456 61.3792 0.775755 4.93456 1 0 0 0.00964451 0.016028 -0.00694504 10.2123 11.9378 2.77983 
9515 595 8 19 -0.16 11.408 5.81014 2.57642 11.408 54.9925 51.7588 0 1 1 -0.0017814 0.00158718 0.00357718 4.96971 -1.04114 1.33961 
7957 498 2 12.01 0.11 15.1396 1.33267 2.0919 15.1396 50.515 51.2742 0 1 1 0.000477742 -0.00577722 0.0114138 -64.8528 -8.352 -21.0622 
7964 498 3 1.008 0.03 14.5817 1.86428 1.2723 14.5817 51.0466 50.4547 0 1 1 0.0186671 -0.00853659 -0.0234282 18.3099 -2.35449 20.7836 
7953 498 1 16 -0.4 16.3258 0.770864 1.63311 16.3258 49.9532 50.8155 0 1 1 -0.00203759 0.00539967 -0.000367825 34.3061 4.27384 -5.44188 
7963 498 3 1.008 0.03 15.2126 1.93083 2.97239 15.2126 51.1132 52.1547 0 1 1 -0.0266652 -0.0252198 0.00638321 6.58005 12.4335 9.90388 
9516 595 8 19 -0.16 9.84513 4.88694 1.52853 9.84513 54.0693 50.7109 0 1 1 -0.000230372 0.00412977 0.00391279 15.0177 -8.71024 -9.44272 
9513 595 7 12.01 0.35 11.1506 4.77099 1.79939 11.1506 53.9533 50.9817 0 1 1 -0.00189249 -0.0053682 -0.00139363 -6.11716 24.0159 -4.06607 
9514 595 8 19 -0.16 11.3087 3.70615 2.55335 11.3087 52.8885 51.7357 0 1 1 0.00104649 -0.0016258 -0.00124066 -4.22414 -5.71639 5.14925 
786 50 1 16 -0.4 13.5504 2.39715 5.28472 62.7327 2.39715 5.28472 1 0 0 0.0040658 0.00133359 0.00197984 -2.03609 17.5314 -3.41345 
790 50 2 12.01 0.11 12.2875 1.88031 4.96942 61.4699 1.88031 4.96942 1 0 0 -0.000395446 -0.000610189 0.00155736 -10.1764 -32.5865 17.7592 
800 50 3 1.008 0.03 11.9849 2.22174 4.03691 61.1672 2.22174 4.03691 1 0 0 0.0170652 -0.0148106 -0.0224069 -7.83941 9.68627 -32.1001 
9512 595 6 16 -0.53 13.5783 4.43109 1.00002 13.5783 53.6134 50.1824 0 1 1 0.0108135 -0.00106358 0.00074689 -4.22861 5.13672 -9.26969 
793 50 3 1.008 0.03 12.4084 4.23357 5.29405 61.5907 4.23357 5.29405 1 0 0 0.0217675 -0.0444641 -0.00904699 2.34984 -0.158494 5.59936 
788 50 2 12.01 0.14 13.4225 3.83216 5.41538 62.6049 3.83216 5.41538 1 0 0 0.0114363 -0.00258637 -0.00114813 6.21487 -28.9666 -4.35021 
9242 578 3 1.008 0.03 15.0797 6.21046 3.10851 15.0797 153.758 3.10851 0 3 0 -0.00543518 -0.00140893 0.00417092 -2.3066 26.8283 -5.10313 
9235 578 2 12.01 0.14 16.1617 7.39949 1.65434 16.1617 154.947 1.65434 0 3 0 -0.00389259 -0.00409495 0.00119705 35.7025 43.945 31.712 
5672 355 3 1.008 0.03 9.38091 2.58125 2.23147 9.38091 248.493 2.23147 0 5 0 0.00507093 0.0287087 -0.0250389 -12.0245 2.63817 3.18589 
799 50 3 1.008 0.03 11.5296 2.228 5.65871 60.712 2.228 5.65871 1 0 0 -0.00466802 0.0241423 -0.0041492 -3.39668 -0.643272 7.57699 
2535 159 3 1.008 0.03 16.4979 4.80991 1.9628 16.4979 53.9923 51.1451 0 1 1 -0.00675378 -0.0149285 -0.000687305 -3.42485 -21.4856 -1.43975 
2541 159 3 1.008 0.03 16.5801 3.57553 4.30506 16.5801 52.7579 53.4874 0 1 1 0.000209576 -0.00934927 -0.019275 13.7485 3.30375 -9.76306 
9247 578 3 1.008 0.03 13.6001 7.14105 4.69226 13.6001 154.688 4.69226 0 3 0 0.00560959 -0.00107744 -0.0293619 -5.2782 -28.1283 23.5165 
9236 578 2 12.01 0.14 14.9628 7.1947 2.56798 14.9628 154.742 2.56798 0 3 0 0.00124002 -0.00443217 0.000244045 -43.0262 -37.0826 3.39602 
9241 578 3 1.008 0.03 14.0988 7.00583 1.89707 14.0988 154.553 1.89707 0 3 0 -0.0140788 0.0231311 -0.00989981 13.2317 1.1715 4.38937 
787 50 2 12.01 0.14 14.0686 4.18003 6.72022 63.251 4.18003 6.72022 1 0 0 -0.000629814 0.00410882 -0.00367459 -20.6036 59.4264 4.59726 
794 50 3 1.008 0.03 13.9849 4.26475 4.64235 63.1673 4.26475 4.64235 1 0 0 -0.0062269 0.000108109 0.0109831 14.1417 11.8935 -21.0537 
7360 460 3 1.008 0.03 9.24386 7.41901 0.605359 -39.9385 -90.9457 98.9701 -1 -2 2 0.015072 0.00728179 0.0029176 6.88542 16.0858 21.2526 
791 50 3 1.008 0.03 13.9798 5.29243 6.89635 63.1622 5.29243 6.89635 1 0 0 0.012756 0.030122 -0.00242481 9.36718 -25.5918 -8.06388 
9238 578 2 12.01 0.11 13.2967 7.92561 4.07816 13.2967 155.473 4.07816 0 3 0 0.00607096 0.00267245 0.00175114 -7.41745 58.203 2.37278 
9246 578 3 1.008 0.03 12.4733 7.69372 3.40693 12.4733 155.241 3.40693 0 3 0 -0.00377193 0.0252424 0.00193749 -1.45722 -5.12248 0.976695 
9234 578 1 16 -0.4 14.4619 8.26405 3.3909 14.4619 155.811 3.3909 0 3 0 -0.000430986 0.00534855 -0.000163315 30.0578 4.17194 -22.2554 
9239 578 3 1.008 0.03 16.144 8.40393 1.12547 16.144 155.951 1.12547 0 3 0 -0.0140938 -0.00515282 0.0130073 2.86394 -27.3788 12.2555 
792 50 3 1.008 0.03 15.0753 3.85945 6.83871 64.2577 3.85945 6.83871 1 0 0 -0.00169677 -0.0126976 -0.0197269 17.9043 -7.24443 -0.568699 
1291 81 3 1.008 0.03 10.4198 8.4674 5.74941 10.4198 57.6498 5.74941 0 1 0 0.00529209 -0.0121243 0.00821308 13.311 4.01666 1.83805 
5667 355 2 12.01 0.14 8.62175 1.84825 1.93598 8.62175 247.76 1.93598 0 5 0 0.0013702 0.000871719 -0.0079486 33.6156 -22.9482 42.3402 
7965 498 3 1.008 0.03 14.3976 0.545393 2.34739 14.3976 49.7277 51.5297 0 1 1 0.0158969 0.0276129 -0.00897023 14.7191 8.89633 2.97886 
9240 578 3 1.008 0.03 16.174 6.62669 0.960053 16.174 154.174 0.960053 0 3 0 0.0151332 0.00292887 0.00684262 -7.76808 -14.7551 -33.1258 
9647 604 6 16 -0.53 13.6396 8.11436 7.21399 13.6396 57.2967 7.21399 0 1 0 -0.000196983 0.000347701 -0.00335817 9.22556 3.24054 3.46256 
3372 211 3 1.008 0.03 10.2185 0.558017 7.32939 10.2185 0.558017 154.876 0 0 3 -0.00853365 0.0128796 -0.00336214 16.3298 -16.6774 16.0744 
10260 645 5 32.06 1.02 24.3481 2.12138 5.48373 24.3481 51.3037 5.48373 0 1 0 -0.0042071 0.000723982 0.00013129 5.29838 2.73391 71.4053 
1534 96 3 1.008 0.03 20.9056 3.8573 1.49381 20.9056 53.0396 50.6762 0 1 1 0.00306865 -0.00683668 -0.00206344 -11.3193 11.4872 3.10311 
9675 606 5 32.06 1.02 24.3029 4.89301 1.14142 24.3029 54.0754 50.3238 0 1 1 -0.00341994 -0.000568121 -0.00163556 72.5149 0.319992 -41.6226 
10252 645 4 14.01 -0.66 23.6835 2.24848 6.95163 23.6835 51.4308 6.95163 0 1 0 0.00377589 -0.0106533 0.00154774 25.4753 14.7257 -40.9318 
2540 159 3 1.008 0.03 18.2041 4.28072 4.17052 18.2041 53.4631 53.3529 0 1 1 0.0115547 0.0021742 -0.0263604 6.20882 5.88961 -6.04679 
2539 159 3 1.008 0.03 17.9536 2.5761 4.55758 17.9536 51.7585 53.7399 0 1 1 0.0333899 0.0236282 0.00910786 1.09063 10.0656 -6.44506 
2531 159 2 12.01 0.14 17.2442 4.09376 1.58845 17.2442 53.2761 50.7708 0 1 1 0.0040434 -0.0021294 -0.00320317 38.8478 9.15865 39.2277 
9670 606 6 16 -0.53 24.3141 5.72373 4.24812 24.3141 54.9061 53.4305 0 1 1 -0.0042966 -0.00467621 0.0029867 -3.5018 15.7041 -19.9179 
2536 159 3 1.008 0.03 18.1694 4.72772 1.66174 18.1694 53.9101 50.8441 0 1 1 -0.0172824 -0.0174013 0.00563328 -16.7202 -14.1148 -12.4326 
2529 159 1 16 -0.4 17.5752 2.9873 2.50052 17.5752 52.1696 51.6829 0 1 1 0.00460263 0.00289132 0.000522832 -7.14511 27.5301 5.56507 
1524 96 2 12.01 0.14 20.7312 1.69637 2.86295 20.7312 50.8787 52.0453 0 1 1 0.00786223 -0.00155881 0.00277411 13.6046 -7.39172 38.2518 
1522 96 1 16 -0.4 19.9765 2.04577 1.75873 19.9765 51.2281 50.9411 0 1 1 -0.00431617 -0.0044791 -0.00540545 -8.11678 -4.47315 -13.5748 
1523 96 2 12.01 0.14 19.9095 0.802623 3.77865 19.9095 49.985 52.961 0 1 1 0.00527232 -0.000379647 -0.000646817 13.4996 16.2405 34.1317 
1521 96 1 16 -0.4 18.6576 0.59123 3.15168 18.6576 49.7736 52.334 0 1 1 0.000205425 0.00102982 0.00523493 -16.2697 -0.0789745 -8.84569 
9669 606 6 16 -0.53 21.9683 5.14052 3.97747 21.9683 54.3229 53.1598 0 1 1 -0.00896385 0.00362904 0.00465779 6.77066 19.0828 0.506658 
9668 606 5 32.06 1.02 23.0983 5.88067 3.44503 23.0983 55.063 52.6274 0 1 1 0.00408283 -0.000400622 0.000732059 -27.3493 -57.4277 17.0348 
9667 606 4 14.01 -0.66 23.1347 5.63871 1.89093 23.1347 54.8211 51.0733 0 1 1 -0.00127589 -0.000282333 0.00206746 34.2666 3.52813 14.6277 
10478 689 9 24.305 2 18.2297 1.50574 1.48123 18.2297 50.6881 50.6636 0 1 1 0.00226432 0.00211845 -0.000874983 -29.3949 -14.7673 11.1558 
2533 159 2 12.01 0.11 17.6128 3.4101 3.92101 17.6128 52.5924 53.1034 0 1 1 -0.000801571 0.00343914 -0.00329118 -28.74 -23.8887 -11.3879 
1529 96 3 1.008 0.03 21.0193 2.58776 3.44395 21.0193 51.7701 52.6263 0 1 1 -0.0231759 -0.0150127 0.0152962 4.16203 -6.47952 -5.49274 
9671 606 7 12.01 0.35 22.6608 7.61269 3.62986 22.6608 56.795 52.8122 0 1 1 0.00354502 -0.0063207 0.00134492 -59.9868 0.678802 -46.4374 
10262 645 6 16 -0.53 23.5791 1.52618 4.43754 23.5791 50.7085 4.43754 0 1 0 -0.00435435 -0.00584837 -0.00403925 -6.76848 4.94771 -17.8782 
1530 96 3 1.008 0.03 21.5955 1.0743 2.60376 21.5955 50.2567 51.7861 0 1 1 0.000747568 0.022644 0.0105233 3.81561 12.6956 -5.65051 
9233 578 1 16 -0.4 17.3956 7.08561 2.38416 17.3956 154.633 2.38416 0 3 0 -0.00202687 -0.00173884 -0.00184347 -25.4333 13.3426 -11.5416 
399 25 3 1.008 0.03 23.1456 6.42468 6.62568 23.1456 55.607 55.808 0 1 1 -0.0033813 0.0123497 0.00410445 -6.92262 9.38556 0.346741 
9674 606 8 19 -0.16 21.4867 7.8947 2.93393 21.4867 57.0771 52.1163 0 1 1 0.000651665 -0.00303343 -0.00533356 58.5105 -2.40657 25.2732 
9245 578 3 1.008 0.03 18.5881 7.90047 3.83119 18.5881 155.448 3.83119 0 3 0 -0.00579851 0.0273889 -0.000207818 17 6.04022 -3.41991 
9672 606 8 19 -0.16 23.6505 8.36879 3.22554 23.6505 57.5511 52.4079 0 1 1 0.00408222 0.00119565 0.00239734 1.32699 15.0066 -12.0301 
9643 604 8 19 -0.16 18.4159 6.46896 6.64525 18.4159 55.6513 6.64525 0 1 0 -0.00247435 0.00254519 -0.0044977 1.0265 -0.297014 7.60447 
386 25 1 16 -0.4 24.8951 5.54356 7.14889 24.8951 54.7259 56.3312 0 1 1 0.00617149 -0.00299119 -0.00719108 8.58563 9.06147 -15.6234 
1527 96 3 1.008 0.03 19.8816 1.20381 4.85032 19.8816 50.3862 54.0327 0 1 1 -0.00117105 -0.00353859 0.00880618 -5.53485 -9.52363 -35.0827 
9673 606 8 19 -0.16 22.4465 7.93794 4.8647 22.4465 57.1203 54.0471 0 1 1 -0.00405823 0.00432697 -0.00410763 -3.5733 4.32392 25.3527 
9237 578 2 12.01 0.11 17.8564 8.21156 3.10153 17.8564 155.759 3.10153 0 3 0 0.00895046 -0.000118951 -0.00607181 -20.0532 -3.34185 -25.8227 
1526 96 2 12.01 0.11 20.7066 2.93201 0.978188 20.7066 52.1144 50.1605 0 1 1 9.19527e-06 -0.000573229 0.00279114 20.9794 16.275 -46.3272 
9644 604 8 19 -0.16 17.5704 4.59981 7.37847 17.5704 53.7822 7.37847 0 1 0 1.51456e-05 -0.00015849 -0.000408557 25.5646 42.666 9.65083 
5055 316 3 1.008 0.03 20.2418 6.26457 1.53961 118.607 -42.9178 -96.8251 2 -1 -2 0.0242082 0.0192463 0.0120817 -1.2707 14.9797 -3.24957 
5046 316 2 12.01 0.11 20.1937 6.7626 0.555656 118.558 -42.4198 -97.809 2 -1 -2 0.00458493 0.00295218 -0.00371436 22.4727 -50.4868 -9.70797 
5293 331 3 1.008 0.03 23.5891 0.848159 1.39835 23.5891 50.0305 50.5807 0 1 1 -0.0242226 -0.00794824 -0.000780569 13.6412 -6.98961 -17.7157 
9676 606 6 16 -0.53 24.5154 3.49095 1.42961 24.5154 52.6733 50.612 0 1 1 -0.00200387 -0.00318044 -0.00079697 -19.9213 6.53884 13.1412 
10259 645 8 19 -0.16 20.6396 2.52059 6.80333 20.6396 51.7029 6.80333 0 1 0 0.00378947 -0.00194553 -0.00354247 2.12242 11.203 -0.656269 
1535 96 3 1.008 0.03 21.7645 2.65352 0.746462 21.7645 51.8359 49.9288 0 1 1 -0.00327234 0.00349343 0.00144711 -24.2858 -12.8488 2.9588 
390 25 2 12.01 0.11 23.5148 5.6896 7.31972 23.5148 54.872 56.5021 0 1 1 -0.00097147 -0.00193506 -0.0027508 -31.45 -14.6741 16.0288 
5054 316 3 1.008 0.03 19.606 7.61406 0.51872 117.971 -41.5683 -97.846 2 -1 -2 -0.0150372 -0.00972317 0.0559532 -26.2924 27.094 9.74306 
400 25 3 1.008 0.03 22.9938 4.75469 7.0912 22.9938 53.937 56.2735 0 1 1 0.0185968 -0.0127804 0.0125247 4.73822 2.57082 -4.54614 
5313 333 1 16 -0.4 0.733187 8.63842 5.7956 49.9155 107.003 54.9779 1 2 1 0.00738791 -0.00293745 -0.00114649 27.7 -10.377 -52.1452 
2439 153 3 1.008 0.03 6.77872 8.71284 4.56532 105.143 57.8952 53.7477 2 1 1 0.0144619 -0.0196745 0.0155166 -0.932588 1.33977 -4.42636 
2443 153 3 1.008 0.03 6.43796 9.32291 1.85815 104.803 58.5053 51.0405 2 1 1 0.0130729 -0.00180045 0.00201681 5.3062 -45.6547 -34.2536 
5324 333 3 1.008 0.03 1.8447 9.14505 3.95242 51.027 107.51 53.1348 1 2 1 -0.0164007 0.0247005 -0.0115439 5.00322 13.6502 1.50925 
2436 153 2 12.01 0.14 5.4294 9.78337 5.94421 103.794 58.9657 55.1266 2 1 1 -0.00515518 0.000919331 -0.00910317 0.603944 -0.0975864 -79.3282 
2445 153 3 1.008 0.03 7.61811 10.438 2.66631 105.983 59.6204 51.8487 2 1 1 0.00846854 -0.0113877 -0.0256464 -16.6083 -15.5521 -7.88556 
2444 153 3 1.008 0.03 6.25732 11.0627 1.78871 104.622 60.245 50.9711 2 1 1 0.00151082 0.0014763 0.00257332 -1.30959 -15.4306 -0.0109728 
3383 212 3 1.008 0.03 3.33793 12.5323 1.9452 3.33793 -36.65 -47.2371 0 -1 -1 0.0175034 0.00778825 0.0123149 8.70818 16.1522 2.78654 
3379 212 2 12.01 0.14 3.52555 13.6072 2.18496 3.52555 -35.5752 -46.9974 0 -1 -1 0.00556705 -0.00181074 0.000866927 -5.92405 -15.7594 -23.3642 
3377 212 1 16 -0.4 2.78802 14.3609 1.21399 2.78802 -34.8215 -47.9684 0 -1 -1 0.00511181 -0.00309656 0.00181748 12.6487 9.23382 -8.66732 
3392 212 3 1.008 0.03 2.41675 16.3198 2.99575 2.41675 -32.8626 -46.1866 0 -1 -1 -0.0347336 0.0137678 -0.0119892 -5.20373 6.0782 22.9136 
3382 212 2 12.01 0.11 2.55667 16.0922 4.08391 2.55667 -33.0901 -45.0984 0 -1 -1 -0.000653549 -0.000455476 -0.00990607 54.1207 -8.8216 -39.1666 
3380 212 2 12.01 0.14 3.12337 13.8438 3.63504 3.12337 -35.3386 -45.5473 0 -1 -1 -0.00111277 0.00366103 -0.00851011 -31.293 14.3941 -38.101 
3378 212 1 16 -0.4 3.63066 15.1119 4.05689 3.63066 -34.0705 -45.1255 0 -1 -1 -0.00360985 -0.00260124 0.0124399 -31.2152 7.62174 14.4158 
3390 212 3 1.008 0.03 1.67986 15.6722 4.47628 1.67986 -33.5102 -44.7061 0 -1 -1 0.0157232 0.0330779 0.00704145 -25.9218 -4.79491 13.8894 
3385 212 3 1.008 0.03 2.02069 13.648 3.68399 2.02069 -35.5343 -45.4984 0 -1 -1 -0.0163351 -0.0127208 0.0017394 19.3523 10.8464 7.67834 
3386 212 3 1.008 0.03 3.58459 13.0646 4.13652 3.58459 -36.1177 -45.0458 0 -1 -1 -0.00279032 0.0128511 -0.0117359 17.2333 -22.5273 27.5929 
2433 153 1 16 -0.4 5.71467 10.1035 3.461 104.079 59.2859 52.6434 2 1 1 0.00187837 -0.00553663 -0.00346555 -32.2286 9.30703 9.23618 
2435 153 2 12.01 0.14 6.34241 9.71135 4.63654 104.707 58.8937 53.8189 2 1 1 -0.00642549 0.00644151 -0.00494418 5.3427 2.76679 58.7981 
3384 212 3 1.008 0.03 4.57653 13.8316 2.07095 4.57653 -35.3508 -47.1114 0 -1 -1 -0.0115647 -0.0107261 -0.0337749 8.25451 -3.04116 0.063928 
2440 153 3 1.008 0.03 7.14369 10.4327 4.84633 105.508 59.6151 54.0287 2 1 1 -0.0195451 0.00246159 0.0145276 -0.852057 -4.95899 -4.69158 
2437 153 2 12.01 0.11 6.56425 10.177 2.37883 104.929 59.3593 51.5612 2 1 1 0.0109783 0.00303607 -0.00552626 28.9539 74.567 17.9811 
1295 81 3 1.008 0.03 8.26011 14.1966 2.66148 8.26011 63.3789 2.66148 0 1 0 -0.0348414 -0.00972875 0.0129952 20.4829 -2.81078 10.4179 
1296 81 3 1.008 0.03 8.40151 14.2216 4.352 8.40151 63.4039 4.352 0 1 0 -0.0125053 -0.00390358 0.0167574 10.7056 16.4698 7.22087 
5704 357 3 1.008 0.03 1.92843 11.8939 6.757 -47.2539 11.8939 6.757 -1 0 0 0.00862489 -0.0209457 -0.0214371 0.426758 -16.6951 -16.3214 
5703 357 3 1.008 0.03 2.44297 13.548 6.5164 -46.7394 13.548 6.5164 -1 0 0 0.024046 -0.0081082 -0.0165229 12.516 10.4605 -10.5767 
2442 153 3 1.008 0.03 4.71828 10.5918 5.77047 103.083 59.7742 54.9528 2 1 1 0.0178036 0.0264909 -0.0189634 -4.50847 -3.7159 4.10408 
3915 245 3 1.008 0.03 7.44235 16.6741 2.16881 7.44235 16.6741 51.3512 0 0 1 -0.00763538 -0.00260673 0.0277976 0.737705 5.0179 -9.10946 
4811 301 3 1.008 0.03 6.34254 16.7087 4.56085 55.5249 16.7087 53.7432 1 0 1 0.0132571 -0.00678739 0.00728869 -1.20353 7.5912 -0.837253 
3623 227 3 1.008 0.03 7.39699 11.924 7.43063 105.762 11.924 -41.7517 2 0 -1 0.0012039 0.0250048 0.0156184 -30.5661 -8.22031 -21.7583 
5702 357 2 12.01 0.11 0.467052 15.6424 7.40405 -48.7153 15.6424 7.40405 -1 0 0 -0.000803875 0.00309984 0.00118198 8.39097 32.9372 -15.4691 
3628 227 3 1.008 0.03 6.88249 14.373 7.21222 105.247 14.373 -41.9701 2 0 -1 0.0209422 0.0181517 0.00751917 -12.7349 -0.0209004 -10.2784 
2441 153 3 1.008 0.03 5.97792 10.0276 6.79073 104.343 59.2099 55.9731 2 1 1 0.00676727 0.00656691 -0.00344378 21.4888 4.73873 29.1781 
5712 357 3 1.008 0.03 1.49026 15.7538 6.98432 -47.6921 15.7538 6.98432 -1 0 0 0.010317 -0.0114127 -0.0140058 -12.9745 6.14051 8.14228 
6639 415 3 1.008 0.03 7.59792 13.3719 0.703286 -41.5844 62.5542 0.703286 -1 1 0 0.00158106 -0.0230206 -0.0433764 -0.946585 0.00575633 2.82886 
5699 357 2 12.01 0.14 2.00116 12.857 7.19228 -47.1812 12.857 7.19228 -1 0 0 -0.00997452 0.00793262 -0.000228003 -45.4684 8.57963 17.1034 
2447 153 3 1.008 0.03 3.11183 8.95172 7.04209 101.477 58.1341 56.2244 2 1 1 0.00819641 -0.0141877 -0.00912293 -6.8877 12.6689 5.4738 
8538 534 3 1.008 0.03 12.2538 9.28465 0.993318 61.4362 9.28465 -48.189 1 0 -1 -0.0198845 6.46441e-06 0.00929686 8.89214 25.3229 6.85665 
9649 604 8 19 -0.16 16.6999 8.68749 6.0931 16.6999 57.8698 6.0931 0 1 0 0.00516835 0.00357852 -0.00273838 20.0137 -23.3885 -30.4255 
7725 483 3 1.008 0.03 16.3152 12.3387 2.42232 -32.8671 61.521 -145.125 -1 1 -3 -0.00736537 -0.00870628 -0.00648359 2.91979 -23.3471 -7.10989 
1286 81 2 12.01 0.11 9.00861 14.0191 3.47343 9.00861 63.2015 3.47343 0 1 0 -0.00640878 0.00970541 0.00159186 -37.5049 -37.3152 -15.1657 
1294 81 3 1.008 0.03 9.90644 14.5955 3.30783 9.90644 63.7778 3.30783 0 1 0 0.0236887 -0.044785 -0.00131273 2.50455 12.5276 4.53686 
8532 534 2 12.01 0.14 12.8615 10.1345 0.582938 62.0438 10.1345 -48.5994 1 0 -1 -0.00192321 0.00131336 -0.000816343 42.946 -38.7288 -22.6006 
8536 534 3 1.008 0.03 12.0483 11.9506 1.3213 61.2307 11.9506 -47.8611 1 0 -1 0.0214431 -0.00427594 -0.00937039 -11.5205 3.90272 5.95104 
1282 81 1 16 -0.4 9.30928 12.6163 3.60588 9.30928 61.7987 3.60588 0 1 0 -0.00195915 0.00216148 0.000133789 -10.2219 18.237 -10.5844 
1289 81 3 1.008 0.03 10.0161 13.0215 5.49354 10.0161 62.2039 5.49354 0 1 0 -0.00519809 0.0170856 -0.0204684 5.87032 -12.8179 1.61388 
1285 81 2 12.01 0.11 9.54705 9.09744 5.82165 9.54705 58.2798 5.82165 0 1 0 -0.000699246 0.00493673 -0.00815941 -42.6692 -17.2675 8.58648 
9874 619 8 19 -0.16 15.2029 14.8751 7.3155 15.2029 64.0574 7.3155 0 1 0 0.00161274 0.0039814 0.00284743 -16.7674 8.14035 1.02056 
1281 81 1 16 -0.4 9.68 10.4919 5.82325 9.68 59.6742 5.82325 0 1 0 -0.00579497 -7.94138e-05 0.00441809 18.8908 11.4207 -14.4762 
1283 81 2 12.01 0.14 10.5618 10.9625 4.78097 10.5618 60.1449 4.78097 0 1 0 -0.00183546 -3.51435e-05 -0.00329629 14.1795 2.45325 46.9431 
1284 81 2 12.01 0.14 10.2813 12.4347 4.59941 10.2813 61.6171 4.59941 0 1 0 0.00428205 -0.00408738 0.00925747 0.882381 17.152 -9.09572 
1287 81 3 1.008 0.03 11.6349 10.9237 5.17501 11.6349 60.106 5.17501 0 1 0 0.0169511 -0.00221865 0.015346 -32.0541 -12.2355 -21.3513 
1290 81 3 1.008 0.03 11.169 12.8792 4.1632 11.169 62.0615 4.1632 0 1 0 0.0271593 -0.0317821 0.00377384 6.98073 2.78648 3.93615 
1293 81 3 1.008 0.03 8.86986 8.81512 4.99755 8.86986 57.9975 4.99755 0 1 0 0.0223484 -0.00077621 0.00403408 13.7303 0.920761 5.03851 
9873 619 7 12.01 0.35 14.5836 14.8435 6.13681 14.5836 64.0259 6.13681 0 1 0 0.00223111 0.00411488 -0.00149092 78.474 -3.52297 -19.841 
9875 619 8 19 -0.16 14.0331 13.6697 6.0449 14.0331 62.852 6.0449 0 1 0 -0.00296435 -0.00389908 0.00120435 -8.34607 -20.7521 -2.03789 
9876 619 8 19 -0.16 15.6587 14.8623 5.24368 15.6587 64.0446 5.24368 0 1 0 0.00382191 -0.000996409 -0.00178006 -57.7005 1.24816 31.282 
1288 81 3 1.008 0.03 10.3906 10.4556 3.84071 10.3906 59.638 3.84071 0 1 0 0.00934391 -0.0267163 -0.0167743 7.90761 -7.59416 -5.20587 
9870 619 5 32.06 1.02 13.3779 16.1662 5.8448 13.3779 65.3486 5.8448 0 1 0 -0.00191348 -0.00450626 0.000721649 8.49392 26.686 0.326749 
9248 578 3 1.008 0.03 13.0202 8.84611 4.68781 13.0202 156.393 4.68781 0 3 0 0.00367319 0.021565 0.00314761 4.54087 -30.0107 -14.4146 
8533 534 2 12.01 0.11 13.8258 13.6603 1.67412 63.0082 13.6603 -47.5082 1 0 -1 -0.00549862 -0.00519805 -0.00470511 40.0001 8.50578 -16.4444 
8540 534 3 1.008 0.03 14.6541 14.3988 1.38355 63.8364 14.3988 -47.7988 1 0 -1 0.0233586 -0.0255914 0.00755538 -29.3992 -28.1448 1.76333 
8539 534 3 1.008 0.03 13.9052 13.6856 2.76768 63.0876 13.6856 -46.4147 1 0 -1 0.0268162 -0.0234152 0.0107165 -12.4644 -6.07705 -3.43823 
8529 534 1 16 -0.4 14.0558 12.3384 1.10809 63.2381 12.3384 -48.0743 1 0 -1 0.00172887 -0.00195881 -0.000160101 -11.118 5.21498 8.38776 
8535 534 3 1.008 0.03 13.0866 11.0543 2.47501 62.269 11.0543 -46.7073 1 0 -1 -0.0203601 0.00466263 0.0120988 -1.0401 13.973 -7.91355 
7726 483 3 1.008 0.03 16.2576 16.0636 1.1023 -32.9248 65.246 -146.445 -1 1 -3 0.0130248 0.00602245 -0.0112498 -6.36295 11.708 -4.30862 
8541 534 3 1.008 0.03 12.8799 14.0463 1.28102 62.0622 14.0463 -47.9013 1 0 -1 -0.0230588 -0.00280351 -0.023668 1.29091 4.12299 8.24061 
9871 619 6 16 -0.53 12.865 15.7892 4.545 12.865 64.9715 4.545 0 1 0 -0.00766611 0.00112677 -0.000556354 -13.0101 1.69127 8.11636 
8531 534 2 12.01 0.14 12.982 11.4304 1.43713 62.1644 11.4304 -47.7452 1 0 -1 0.00653468 -5.52063e-05 -0.000531171 7.55949 -21.0539 11.2771 
7724 483 3 1.008 0.03 16.2092 13.6996 3.32029 -32.9731 62.8819 -144.227 -1 1 -3 -0.00792604 0.00402854 -0.0041307 11.2436 5.16909 -13.1325 
3500 219 3 1.008 0.03 11.7732 11.9606 7.08249 11.7732 61.1429 7.08249 0 1 0 -0.0150838 0.0126487 -0.00565824 -5.8036 3.19891 21.0895 
1292 81 3 1.008 0.03 8.97462 8.82198 6.73911 8.97462 58.0043 6.73911 0 1 0 0.00687146 -0.0154693 -0.00757913 12.9076 2.03888 -13.0519 
4808 301 3 1.008 0.03 8.71792 16.7815 5.12914 57.9003 16.7815 54.3115 1 0 1 0.0207788 0.0150621 -0.00325693 -9.18361 5.5791 5.33825 
3916 245 3 1.008 0.03 9.17691 16.7672 2.20779 9.17691 16.7672 51.3901 0 0 1 -0.0196681 -0.00208905 0.0125607 7.56624 -2.81345 1.59241 
9650 604 8 19 -0.16 15.3441 10.3111 6.34255 15.3441 59.4935 6.34255 0 1 0 0.00366843 0.00225525 -0.00242453 5.08424 -23.6149 -0.597588 
9872 619 6 16 -0.53 12.4995 16.215 7.0166 12.4995 65.3973 7.0166 0 1 0 -0.00219649 0.00439664 0.00516932 19.9422 -12.201 -23.6736 
9648 604 7 12.01 0.35 16.007 9.31522 6.96218 16.007 58.4976 6.96218 0 1 0 -0.00410849 -0.00304127 -0.000817264 -40.2791 60.6004 41.007 
6640 415 3 1.008 0.03 8.6257 11.9925 0.986199 -40.5566 61.1749 0.986199 -1 1 0 -0.00242833 2.44071e-05 -0.00922233 2.91821 -3.15683 -4.06596 
3627 227 3 1.008 0.03 8.63989 14.4004 7.08574 107.005 14.4004 -42.0966 2 0 -1 -0.000129584 -0.0291986 -0.00741997 -16.4 -8.23712 20.8184 
8587 537 3 1.008 0.03 24.8996 14.484 4.71968 24.8996 14.484 53.902 0 0 1 0.00132221 0.0126578 0.0200476 1.14631 0.347388 7.5314 
9244 578 3 1.008 0.03 17.0439 8.62543 3.66336 17.0439 156.172 3.66336 0 3 0 -0.00720667 -0.0101894 0.0235094 -7.96943 7.1245 8.31951 
8965 561 2 12.01 0.11 24.3976 13.8792 2.13852 24.3976 -35.3032 51.3209 0 -1 1 -0.00370441 -0.00318491 0.00216896 -15.7539 -11.4066 13.8314 
7713 483 1 16 -0.4 17.4529 13.9249 1.56398 -31.7295 63.1072 -145.983 -1 1 -3 0.00363601 0.00305204 -0.00318124 -13.1749 -14.7053 33.1896 
7717 483 2 12.01 0.11 16.9473 13.1424 2.71346 -32.2351 62.3247 -144.834 -1 1 -3 0.00528038 0.00711884 0.00366825 12.2245 44.6038 13.6308 
8968 561 3 1.008 0.03 22.0331 13.9885 2.13303 22.0331 -35.1939 51.3154 0 -1 1 -0.0316175 0.00949789 0.0161805 -15.6203 -11.6179 -1.29198 