ITEM: TIMESTEP
2450000
ITEM: NUMBER OF ATOMS
10479
ITEM: BOX BOUNDS pp pp pp
4.0882558190751794e-01 4.9591174418091420e+01
4.0882558190751794e-01 4.9591174418091420e+01
4.0882558190751794e-01 4.9591174418091420e+01
ITEM: ATOMS id mol type mass q x y z xu yu zu ix iy iz vx vy vz fx fy fz 
10129 636 8 19 -0.16 5.44013 6.55018 5.12035 5.44013 6.55018 54.3027 0 0 1 0.00343503 -0.00623521 0.000188153 19.364 -19.274 -7.49024 
10128 636 7 12.01 0.35 4.63814 7.08772 5.98542 4.63814 7.08772 55.1678 0 0 1 0.00456972 -0.00685458 -0.00178428 -34.1888 23.0329 56.1864 
975 61 3 1.008 0.03 5.52028 3.55355 4.57408 5.52028 3.55355 53.7564 0 0 1 -0.00913072 0.00977077 -0.0101384 11.4434 -8.43949 -6.96941 
966 61 2 12.01 0.11 4.95663 3.28026 5.44998 4.95663 3.28026 54.6323 0 0 1 0.00954886 0.0148335 -2.07659e-05 13.1071 -18.4229 10.6334 
10130 636 8 19 -0.16 3.42542 6.6213 5.77796 3.42542 6.6213 54.9603 0 0 1 -0.00384288 -0.0042784 0.00107419 -6.57166 5.48975 -21.0858 
9446 591 2 12.01 0.11 5.57145 2.2955 1.54973 5.57145 51.4778 50.7321 0 1 1 0.00484765 0.00155543 -0.00832846 34.8732 -22.8083 26.4291 
10131 636 8 19 -0.16 4.67114 8.40227 5.76437 4.67114 8.40227 54.9467 0 0 1 0.000548499 -0.00156091 -0.00178917 -12.1772 -11.7172 -11.5505 
6258 392 1 16 -0.4 2.49764 2.64617 3.03258 2.49764 2.64617 101.397 0 0 2 -0.0034076 -0.0028885 -0.00242361 6.14901 -44.4468 34.3796 
6262 392 2 12.01 0.11 2.32511 3.87179 2.47411 2.32511 3.87179 100.839 0 0 2 -0.00446598 0.00116697 0.00323955 -25.5997 22.4006 49.1918 
6266 392 3 1.008 0.03 0.988702 1.56962 2.07677 0.988702 1.56962 100.441 0 0 2 -0.0234387 -0.00881503 -0.0257552 4.92507 -2.29763 3.41695 
9442 591 1 16 -0.4 5.84063 3.64131 1.86519 5.84063 52.8237 51.0475 0 1 1 0.00182308 -0.00566436 0.00358116 1.8044 6.81778 -2.22684 
6272 392 3 1.008 0.03 2.76061 3.83914 1.56364 2.76061 3.83914 99.9283 0 0 2 -0.00195087 -0.0198555 0.000148268 30.2003 14.5452 -47.5367 
6265 392 3 1.008 0.03 2.58588 1.48876 1.36806 2.58588 1.48876 99.7328 0 0 2 -0.029834 0.0419716 0.0251624 2.62419 -4.95148 -3.09995 
6260 392 2 12.01 0.14 2.05775 1.48002 2.31185 2.05775 1.48002 100.677 0 0 2 0.00115907 -0.00286809 -0.00999069 2.53234 12.2791 -1.62044 
7935 496 3 1.008 0.03 7.60615 4.80304 5.58224 7.60615 4.80304 54.7646 0 0 1 -0.0119375 0.0124391 0.0128618 17.6507 -4.67764 22.2429 
2429 152 3 1.008 0.03 3.72879 8.32307 3.35574 -143.818 57.5054 101.72 -3 1 2 0.00140174 -0.00228493 0.0296087 -8.45204 -15.493 8.75928 
9454 591 3 1.008 0.03 4.92852 2.12982 0.749438 4.92852 51.3122 49.9318 0 1 1 0.00861219 0.0163422 0.00326475 -10.0966 2.79616 -33.4025 
9456 591 3 1.008 0.03 4.94665 1.91858 2.33839 4.94665 51.1009 51.5207 0 1 1 -0.0221294 -0.0166023 0.0142458 4.15068 -2.33825 11.1576 
9455 591 3 1.008 0.03 6.50786 1.64454 1.49713 6.50786 50.8269 50.6795 0 1 1 -0.0166484 -0.0353562 0.0119971 -29.5182 20.2484 -1.72292 
969 61 3 1.008 0.03 6.7363 1.52365 5.38081 6.7363 1.52365 54.5632 0 0 1 -0.0113386 -0.0188727 -0.00897759 -11.2408 0.267653 15.1829 
2251 141 3 1.008 0.03 1.33466 2.32621 6.41887 1.33466 2.32621 55.6012 0 0 1 0.0113208 0.00471401 0.0179583 6.24729 16.5503 15.028 
974 61 3 1.008 0.03 4.45863 4.20562 5.60845 4.45863 4.20562 54.7908 0 0 1 0.0101571 -0.0160062 -0.0253592 -13.5923 11.0896 10.9019 
2428 152 3 1.008 0.03 5.3426 7.77754 2.79305 -142.204 56.9599 101.158 -3 1 2 -0.0100699 0.0236798 -0.00764264 -14.9263 8.67982 -4.9393 
976 61 3 1.008 0.03 4.21721 2.51417 5.16262 4.21721 2.51417 54.345 0 0 1 -0.000445216 0.00296655 0.0102456 4.51632 4.96997 3.9649 
2421 152 2 12.01 0.11 4.34204 8.16602 2.48338 -143.205 57.3484 100.848 -3 1 2 0.00137551 0.013284 0.00751709 21.8781 15.0375 5.28543 
9444 591 2 12.01 0.14 6.56298 4.32196 0.852605 6.56298 53.5043 50.035 0 1 1 0.00393969 -0.00293738 -0.000897071 -11.9069 -14.6806 -20.8788 
9450 591 3 1.008 0.03 7.14144 5.04755 1.39056 7.14144 54.2299 50.5729 0 1 1 0.00815618 0.00132733 -0.0103533 9.84913 9.2405 1.16211 
970 61 3 1.008 0.03 5.42732 0.902141 6.48668 5.42732 0.902141 55.669 0 0 1 -0.0399295 -0.0099949 0.00662335 39.0687 15.7108 5.02138 
962 61 1 16 -0.4 5.7983 2.89428 6.59306 5.7983 2.89428 55.7754 0 0 1 -0.000395452 0.00235088 -0.0048596 -12.7499 30.7197 -0.822843 
964 61 2 12.01 0.14 6.32868 1.61382 6.41788 6.32868 1.61382 55.6002 0 0 1 -0.00259754 -0.00221442 0.0088321 2.24673 -37.2534 -21.7488 
2427 152 3 1.008 0.03 3.89859 7.46943 1.80791 -143.648 56.6518 100.173 -3 1 2 -0.00409282 0.0101083 -0.0083886 -8.4397 -11.8575 -6.95648 
6271 392 3 1.008 0.03 2.64016 4.66111 3.20785 2.64016 4.66111 101.573 0 0 2 -0.0102702 -0.0119655 -0.00603899 5.0287 -12.3392 -23.1259 
7926 496 2 12.01 0.11 8.40257 4.89417 6.37991 8.40257 4.89417 55.5623 0 0 1 -0.00305366 -0.00322359 0.00263093 -54.7891 3.12003 -32.7314 
7936 496 3 1.008 0.03 8.583 5.98057 6.32224 8.583 5.98057 55.5046 0 0 1 0.0277157 0.0280355 -0.00182175 5.76681 -8.06326 7.22663 
2106 132 3 1.008 0.03 8.29479 2.07792 2.87037 -40.8876 -96.2868 52.0527 -1 -2 1 0.029524 -0.0125072 -0.00208028 13.5861 -9.78741 -8.3803 
648 41 3 1.008 0.03 0.884519 7.38614 6.34151 50.0669 7.38614 55.5239 1 0 1 -0.00816473 -0.0307951 -0.00837481 -5.17522 -4.62658 0.713604 
2245 141 2 12.01 0.11 1.65884 3.38996 6.54541 1.65884 3.38996 55.7278 0 0 1 -0.00788961 0.0121595 0.00625121 -33.8837 -13.0817 -23.4744 
2253 141 3 1.008 0.03 1.9361 3.65918 5.52439 1.9361 3.65918 54.7067 0 0 1 -0.013152 -0.0071745 0.00581874 10.2842 2.99053 5.25311 
967 61 3 1.008 0.03 8.49623 1.81833 6.93867 8.49623 1.81833 56.121 0 0 1 0.0177823 -0.0182398 -0.0129712 -10.719 -5.80695 5.31437 
6270 392 3 1.008 0.03 1.28255 4.02404 2.35025 1.28255 4.02404 100.715 0 0 2 0.0339195 0.037017 0.00199754 -19.2981 3.45367 -6.60258 
643 41 2 12.01 0.14 0.486052 8.38679 6.18583 49.6684 8.38679 55.3682 1 0 1 0.00173618 -0.00181925 -0.00361595 13.8366 -6.07171 -20.4892 
963 61 2 12.01 0.14 7.57175 1.37818 7.37025 7.57175 1.37818 56.5526 0 0 1 0.000728592 0.00559431 0.00328816 -23.9461 11.5719 6.30823 
2252 141 3 1.008 0.03 0.810074 4.04228 6.73098 0.810074 4.04228 55.9133 0 0 1 -0.00149164 0.00776432 0.0245976 -6.40675 -4.40958 3.0716 
7934 496 3 1.008 0.03 9.20589 4.30026 6.01695 9.20589 4.30026 55.1993 0 0 1 -0.0083657 -0.0145688 -0.00462773 20.1717 -4.39831 -3.35515 
2100 132 2 12.01 0.14 9.29725 1.58977 2.85655 -39.8851 -96.7749 52.0389 -1 -2 1 -0.0022597 0.004821 0.00371534 -48.6684 4.12536 -31.5871 
7891 494 2 12.01 0.14 14.4077 3.65839 5.47943 -34.7746 102.023 54.6618 -1 2 1 -0.00354609 -0.000815137 -0.0023236 -19.5815 -19.4038 -8.84021 
7895 494 3 1.008 0.03 13.6714 3.17188 4.79615 -35.511 101.537 53.9785 -1 2 1 -0.0242946 -0.0065268 0.0248008 14.5489 7.58965 6.2439 
7894 494 2 12.01 0.11 16.5044 4.37567 2.67559 -32.6779 102.74 51.8579 -1 2 1 -0.00361237 -0.000109888 0.000814879 42.4743 -24.7597 -10.8058 
9650 604 8 19 -0.16 9.92881 7.40285 2.60962 9.92881 56.5852 2.60962 0 1 0 -0.00639837 0.00191631 0.000441398 -18.3708 -1.92109 -2.87144 
9647 604 6 16 -0.53 11.0764 6.52331 5.38675 11.0764 55.7057 5.38675 0 1 0 -0.00206548 -0.00381871 -0.00357247 6.12918 5.71667 -12.834 
9637 604 4 14.01 -0.66 12.5274 7.81349 3.67748 12.5274 56.9958 3.67748 0 1 0 -0.00547689 0.00582449 0.000815861 -17.4358 7.18767 -0.100021 
9651 604 8 19 -0.16 8.69683 7.84849 4.34514 8.69683 57.0308 4.34514 0 1 0 0.000158585 -0.00132706 -0.0026273 2.20017 -5.56726 -9.13983 
9648 604 7 12.01 0.35 9.82649 8.13654 3.70329 9.82649 57.3189 3.70329 0 1 0 0.00781062 -0.00207541 0.00365912 34.8575 10.2633 33.5767 
9645 604 5 32.06 1.02 11.3501 7.81189 4.77154 11.3501 56.9942 4.77154 0 1 0 4.26689e-05 -0.00136523 0.00149932 15.9486 -12.3042 -32.9796 
7896 494 3 1.008 0.03 13.7582 4.20839 6.15445 -35.4242 102.573 55.3368 -1 2 1 0.0130767 0.0147699 -0.0126823 4.60099 6.0011 4.46513 
7897 494 3 1.008 0.03 14.7538 5.36578 4.13403 -34.4285 103.73 53.3164 -1 2 1 -0.00917665 0.0117892 0.0136013 1.34477 -3.54848 13.8219 
7892 494 2 12.01 0.14 15.3396 4.60483 4.68357 -33.8427 102.97 53.8659 -1 2 1 0.00652904 -0.0073802 -0.00577283 9.12416 7.24671 28.1727 
7890 494 1 16 -0.4 15.9161 3.73912 3.72346 -33.2662 102.104 52.9058 -1 2 1 -0.005558 -0.00225094 0.000178692 -8.16887 -16.8549 23.5833 
7898 494 3 1.008 0.03 16.0579 5.11973 5.41937 -33.1244 103.484 54.6017 -1 2 1 -0.0146059 -0.00856681 -0.0237129 -19.1415 -18.0392 -32.1697 
7889 494 1 16 -0.4 15.0994 2.60841 6.19243 -34.0829 100.973 55.3748 -1 2 1 0.00304309 0.00585581 -0.00429463 -28.0175 10.7411 7.48652 
7902 494 3 1.008 0.03 15.8504 5.13425 2.33193 -33.3319 103.499 51.5143 -1 2 1 -0.00817267 -0.0266499 -0.0110874 -0.0216166 23.3884 -15.2572 
2060 129 3 1.008 0.03 15.495 0.720595 2.68706 64.6773 49.9029 51.8694 1 1 1 -0.0191529 -0.0237425 -0.00453084 2.18068 -9.09931 23.9715 
9644 604 8 19 -0.16 12.6256 7.69923 0.561585 12.6256 56.8816 0.561585 0 1 0 -0.00440981 0.00234758 0.00479175 19.1641 -22.0748 14.3984 
2102 132 2 12.01 0.11 10.1385 3.68617 3.30051 -39.0439 -94.6785 52.4829 -1 -2 1 -0.00869327 -0.00297211 0.00123226 6.89794 17.884 -0.358038 
2098 132 1 16 -0.4 10.047 2.32677 3.75293 -39.1353 -96.0379 52.9353 -1 -2 1 0.00131142 0.00398878 -0.00252909 9.90958 22.6686 5.21925 
2110 132 3 1.008 0.03 10.6985 3.67746 2.32143 -38.4838 -94.6872 51.5038 -1 -2 1 0.00809402 0.0122589 0.0186768 -8.94635 7.99269 23.6884 
2112 132 3 1.008 0.03 10.6783 4.25174 4.10114 -38.5041 -94.113 53.2835 -1 -2 1 -0.0047827 0.0217654 -0.01489 -1.50486 -11.2565 -20.7945 
2111 132 3 1.008 0.03 9.18934 4.29053 3.17013 -39.993 -94.0742 52.3525 -1 -2 1 0.0212875 0.024002 -0.00124283 17.4201 -25.4616 1.90086 
2105 132 3 1.008 0.03 9.69245 1.53282 1.81539 -39.4899 -96.8319 50.9977 -1 -2 1 -0.0336931 -0.00691745 0.0134095 -3.18487 12.0618 15.8285 
7904 494 3 1.008 0.03 16.6416 3.61709 1.89612 -32.5407 101.982 51.0785 -1 2 1 0.013473 -0.0142355 -0.0351042 -6.20709 6.58835 0.166434 
5856 366 3 1.008 0.03 13.1353 1.84985 1.55211 13.1353 1.84985 -47.6302 0 0 -1 -0.0179906 -0.0203664 -0.00153327 7.40042 -4.95169 12.7152 
7893 494 2 12.01 0.11 14.1702 1.78185 6.95524 -35.0122 100.147 56.1376 -1 2 1 0.0105746 -0.00205446 0.00404548 79.2959 -7.26687 27.036 
5854 366 3 1.008 0.03 11.6909 2.03969 0.605283 11.6909 2.03969 -48.5771 0 0 -1 0.011612 -0.0064109 0.0269687 6.44788 -4.22448 -3.20296 
7901 494 3 1.008 0.03 13.6681 1.07436 6.36123 -35.5143 99.4391 55.5436 -1 2 1 0.0160994 -0.0221556 0.0268637 -19.2187 -10.3601 -16.5841 
10159 638 8 19 -0.16 16.3094 8.55891 6.95884 16.3094 8.55891 56.1412 0 0 1 -0.00544758 -0.00300732 -0.00195659 -25.8614 -2.1921 16.8059 
5849 366 3 1.008 0.03 14.1074 3.84432 1.11162 14.1074 3.84432 -48.0707 0 0 -1 -0.00798772 0.00562125 0.00559988 -1.83346 -7.15982 -9.41063 
5846 366 2 12.01 0.11 12.7381 1.70254 0.56816 12.7381 1.70254 -48.6142 0 0 -1 -0.00158776 -0.00250475 0.000201634 -16.8492 8.66329 -6.90963 
4216 264 3 1.008 0.03 9.71652 6.52652 0.436661 9.71652 -42.6558 -97.928 0 -1 -2 0.00355854 -0.0266387 0.00856721 1.09711 -0.179132 11.0588 
2377 149 3 1.008 0.03 24.5927 3.01752 5.56369 24.5927 52.1999 5.56369 0 1 0 -0.0115832 0.000902393 0.0201603 8.66457 -7.99987 12.8282 
7903 494 3 1.008 0.03 17.5508 4.62596 2.95108 -31.6316 102.991 52.1334 -1 2 1 0.0149968 0.00800598 0.0232895 -18.8568 10.2042 -4.41816 
2378 149 3 1.008 0.03 23.8197 3.7368 4.31681 23.8197 52.9191 4.31681 0 1 0 -0.00943902 -0.0127675 -0.00612188 -6.25264 28.3727 -18.2849 
5278 330 3 1.008 0.03 23.0555 5.59077 5.66182 72.2379 -43.5916 -43.5205 1 -1 -1 0.00974621 0.000128167 -0.0110084 -17.9812 15.6977 -7.87569 
5267 330 2 12.01 0.14 19.275 4.30685 6.05872 68.4573 -44.8755 -43.1236 1 -1 -1 0.00367104 -0.00160132 0.00467639 23.6173 15.0069 48.5027 
2382 149 3 1.008 0.03 22.1866 2.54529 6.02468 22.1866 51.7276 6.02468 0 1 0 -0.0219188 0.0154137 -0.0141932 14.9447 -21.799 -9.60534 
8274 518 1 16 -0.4 21.4094 0.580509 2.90097 21.4094 49.7629 2.90097 0 1 0 -0.0016841 0.00109986 -0.00472532 -32.7451 21.8013 11.8074 
2374 149 2 12.01 0.11 22.6493 1.60644 5.59396 22.6493 50.7888 5.59396 0 1 0 -0.00428842 0.00525384 0.000872898 0.182339 0.5684 -26.6765 
2370 149 1 16 -0.4 23.3636 1.80203 4.31778 23.3636 50.9844 4.31778 0 1 0 0.00570267 -0.00280422 -0.00203154 -21.7269 4.82322 43.178 
10475 686 9 24.305 2 23.0917 1.31262 2.44899 23.0917 50.495 2.44899 0 1 0 0.00201082 0.000726628 0.00501582 15.0849 -2.79576 -6.1204 
8280 518 3 1.008 0.03 20.3135 3.76422 2.17192 20.3135 52.9466 2.17192 0 1 0 0.00647907 0.00257327 0.0292108 -14.0214 6.49332 -7.44046 
8279 518 3 1.008 0.03 21.0257 3.46876 3.72034 21.0257 52.6511 3.72034 0 1 0 0.00631055 0.00399285 -0.00907443 -2.26711 5.49072 5.50554 
8275 518 2 12.01 0.14 20.9382 3.09168 2.71941 20.9382 52.274 2.71941 0 1 0 0.00788965 -0.00458748 0.0057238 61.4795 3.22528 -2.72009 
8277 518 2 12.01 0.11 22.6421 4.38153 1.52632 22.6421 53.5639 1.52632 0 1 0 -0.00498122 -0.000888191 -0.000723301 -7.23726 -18.8226 -22.9675 
2369 149 1 16 -0.4 24.8318 2.12182 2.44467 24.8318 51.3042 2.44467 0 1 0 -0.00136185 -0.00374404 0.00611236 27.5514 -21.929 -22.9946 
8283 518 3 1.008 0.03 22.9139 5.15638 2.19779 22.9139 54.3387 2.19779 0 1 0 -0.00907736 0.0221041 0.00629846 0.641935 13.7058 14.9435 
5270 330 2 12.01 0.11 22.239 6.17092 5.14625 71.4214 -43.0114 -44.0361 1 -1 -1 -0.00724948 0.00561048 -0.00137195 20.6928 7.71934 53.5301 
8273 518 1 16 -0.4 22.3302 3.11057 2.20989 22.3302 52.2929 2.20989 0 1 0 -0.00259488 0.00280961 0.00614586 -39.9243 7.66104 -11.8149 
8282 518 3 1.008 0.03 19.85 1.49452 2.03731 19.85 50.6769 2.03731 0 1 0 -0.0234197 -0.0287925 0.0061802 -49.0471 -13.596 -51.1029 
2383 149 3 1.008 0.03 21.8361 0.879786 5.40131 21.8361 50.0621 5.40131 0 1 0 -0.0228579 0.0249763 0.00725017 8.24492 9.00788 7.82536 
8281 518 3 1.008 0.03 19.8 1.70766 3.74961 19.8 50.89 3.74961 0 1 0 -0.00820813 0.0110448 -0.000700228 -16.9671 -8.62948 6.61456 
8276 518 2 12.01 0.14 20.3763 1.68836 2.84802 20.3763 50.8707 2.84802 0 1 0 -0.000236187 0.00192295 0.00243608 76.6234 -37.6699 41.5171 
2384 149 3 1.008 0.03 23.3737 1.13277 6.2798 23.3737 50.3151 6.2798 0 1 0 0.0057184 0.00725911 0.0191027 -11.1114 7.27994 2.57952 
5266 330 1 16 -0.4 21.1065 5.27011 5.15851 70.2888 -43.9122 -44.0238 1 -1 -1 -0.0046799 -0.00156469 0.00625435 32.7683 24.8356 -22.8336 
5279 330 3 1.008 0.03 22.6912 6.37542 4.1794 71.8736 -42.8069 -45.003 1 -1 -1 0.00894822 0.0294765 -0.00635513 -9.42333 1.5877 -5.89792 
5268 330 2 12.01 0.14 20.5003 5.18784 6.39629 69.6827 -43.9945 -42.7861 1 -1 -1 -0.000221535 0.00446183 -0.00360676 -19.7932 9.25157 2.4313 
5280 330 3 1.008 0.03 22.1318 7.15874 5.75976 71.3141 -42.0236 -43.4226 1 -1 -1 -0.000220193 -0.0198451 0.00732533 -1.26531 -42.4612 -30.8638 
5253 329 2 12.01 0.11 19.1014 6.89444 2.83216 -30.081 56.0768 2.83216 -1 1 0 0.000471119 0.00148174 -0.00470892 18.2347 24.9181 41.1411 
5259 329 3 1.008 0.03 18.3344 6.54705 3.54069 -30.848 55.7294 3.54069 -1 1 0 -0.0187309 -0.00954314 -0.0267857 -3.16259 4.68387 -13.2518 
5249 329 1 16 -0.4 18.936 6.8681 1.48939 -30.2464 56.0504 1.48939 -1 1 0 0.00254422 0.000783837 0.00342458 -20.5852 -21.5655 -30.4069 
5271 330 3 1.008 0.03 18.8473 4.56939 5.16504 68.0297 -44.613 -44.0173 1 -1 -1 0.0229086 9.00426e-05 -0.000543229 -16.6903 5.11612 -42.3147 
2372 149 2 12.01 0.14 24.3139 2.84473 4.54312 24.3139 52.0271 4.54312 0 1 0 0.00662753 0.000980308 0.00245059 26.1601 -33.9739 -9.39672 
5265 330 1 16 -0.4 19.633 2.93942 6.17525 68.8154 -46.2429 -43.0071 1 -1 -1 -0.00234223 0.00270525 0.00259268 -31.892 -23.3582 17.3872 
5269 330 2 12.01 0.11 18.4496 2.09394 6.43811 67.6319 -47.0884 -42.7442 1 -1 -1 -0.00353204 -0.00479387 -0.000479651 44.3348 2.47371 -17.4579 
5260 329 3 1.008 0.03 19.9899 6.35733 3.04609 -29.1924 55.5397 3.04609 -1 1 0 -0.0116399 -0.00574237 -0.0102569 14.4952 -12.9916 4.9861 
5251 329 2 12.01 0.14 17.8559 7.68498 1.10789 -31.3264 56.8673 1.10789 -1 1 0 0.0111055 0.000482623 -0.00349064 26.7987 -9.55539 25.3908 
5277 330 3 1.008 0.03 17.8462 2.19841 5.57416 67.0285 -46.9839 -43.6082 1 -1 -1 -0.0302701 -0.00144498 0.0137748 -23.5728 3.30559 -10.3036 
5272 330 3 1.008 0.03 18.544 4.60528 6.78218 67.7264 -44.5771 -42.4002 1 -1 -1 0.0225383 -0.00360168 0.018259 -11.0046 -5.47216 11.8639 
5275 330 3 1.008 0.03 18.6928 1.04332 6.43763 67.8751 -48.139 -42.7447 1 -1 -1 -0.00340835 -0.00869828 -0.0227153 11.6068 -5.49503 -4.03676 
10161 638 8 19 -0.16 17.6025 7.1101 6.01142 17.6025 7.1101 55.1938 0 0 1 -0.00158388 -0.00170832 -0.00526158 -9.99335 23.9443 15.041 
5274 330 3 1.008 0.03 21.0722 4.61626 7.1382 70.2545 -44.5661 -42.0442 1 -1 -1 -0.00234921 0.016144 0.00708359 5.98733 14.2785 -0.723519 
5261 329 3 1.008 0.03 19.3685 7.93893 3.03369 -29.8138 57.1213 3.03369 -1 1 0 0.0407299 0.00307004 -0.00673551 -1.94574 -5.86451 13.1755 
5255 329 3 1.008 0.03 16.9374 7.49856 1.60904 -32.245 56.6809 1.60904 -1 1 0 0.00314482 0.000621755 0.0148275 -15.5544 -7.14194 10.6496 
8285 518 3 1.008 0.03 22.0182 4.81277 0.69247 22.0182 53.9951 0.69247 0 1 0 -0.000509402 0.000339243 -0.0233586 -4.54397 -18.0989 27.1497 
8284 518 3 1.008 0.03 23.5171 4.20751 0.926099 23.5171 53.3899 0.926099 0 1 0 0.00743504 0.034213 -0.0141147 13.3168 -4.40395 2.64913 
5273 330 3 1.008 0.03 20.2913 6.27235 6.69058 69.4736 -42.91 -42.4918 1 -1 -1 -0.0280188 -0.0129759 0.0106386 -2.42816 -39.0857 0.931748 
10158 638 7 12.01 0.35 17.2955 8.4241 6.14032 17.2955 8.4241 55.3227 0 0 1 -0.00927832 -0.00427454 0.00246739 46.3243 -33.9883 -41.3525 
5276 330 3 1.008 0.03 17.9074 2.14385 7.36401 67.0897 -47.0385 -41.8183 1 -1 -1 -0.00760745 0.00606163 -0.0162829 -4.72658 20.4695 9.13722 
6512 407 3 1.008 0.03 22.1548 7.55334 0.68345 -27.0276 56.7357 99.0481 -1 1 2 0.0191297 0.000278719 0.020828 -14.6159 52.7197 -17.9831 
2424 152 3 1.008 0.03 5.51803 10.1523 3.36794 -142.029 59.3347 101.733 -3 1 2 -0.000321299 0.0129222 0.0114891 6.05532 -5.91265 14.917 
4220 264 3 1.008 0.03 7.95745 8.68363 0.912328 7.95745 -40.4987 -97.4524 0 -1 -2 0.0266246 0.0298705 0.00292813 20.4871 2.70264 31.9811 
2419 152 2 12.01 0.14 4.64342 10.4433 2.82153 -142.904 59.6257 101.186 -3 1 2 -0.000197758 0.00284635 -8.17809e-05 15.6974 22.0953 -21.7491 
2417 152 1 16 -0.4 4.38972 9.44553 1.86841 -143.157 58.6279 100.233 -3 1 2 -0.000201774 0.00394123 -0.00358085 -0.195008 -9.54026 -9.66479 
3654 229 2 12.01 0.11 0.918007 11.4745 3.05983 0.918007 60.6568 3.05983 0 1 0 0.00401416 -0.0095069 0.0107802 14.9039 -10.1557 -41.9575 
10124 636 8 19 -0.16 8.19633 9.4463 6.32919 8.19633 9.4463 55.5115 0 0 1 0.000252006 -0.00804154 -0.000384282 2.23223 -1.77956 -1.25747 
3664 229 3 1.008 0.03 1.59739 11.5832 2.15969 1.59739 60.7655 2.15969 0 1 0 0.0189357 -0.00810588 -0.0207599 -12.7908 -4.14612 31.1317 
3662 229 3 1.008 0.03 1.2929 12.0643 3.86118 1.2929 61.2466 3.86118 0 1 0 0.0129097 -2.03065e-06 -0.00420009 1.56527 23.7809 6.56876 
644 41 2 12.01 0.14 1.66026 9.31274 6.2716 50.8426 9.31274 55.4539 1 0 1 0.0110739 -0.00325105 0.00170461 -0.326802 -8.02992 66.188 
9850 618 6 16 -0.53 1.25533 15.2587 5.51479 50.4377 64.4411 5.51479 1 1 0 -0.00725759 -0.00733049 -0.00255032 -10.3051 -5.56998 21.098 
9853 618 8 19 -0.16 4.0751 16.383 5.12563 53.2575 65.5653 5.12563 1 1 0 -0.00187536 -0.00216786 0.00181391 -11.1923 -7.05067 -11.4591 
2423 152 3 1.008 0.03 3.78343 10.577 3.46066 -143.764 59.7594 101.825 -3 1 2 -0.00732279 -0.0108677 0.00771664 -1.98436 2.75697 10.0611 
2430 152 3 1.008 0.03 2.98006 14.1777 0.942929 -144.567 63.36 99.3076 -3 1 2 -0.0206638 -0.00942454 0.0198914 31.8198 -14.7116 -0.304871 
3663 229 3 1.008 0.03 1.01115 10.4944 3.50893 1.01115 59.6767 3.50893 0 1 0 0.000901942 -0.00512264 0.0125592 0.969811 -10.3068 -9.35734 
9848 618 5 32.06 1.02 1.59789 15.832 4.25736 50.7802 65.0144 4.25736 1 1 0 0.00326779 -0.00512863 -0.00259791 20.2051 19.4624 -26.3133 
9852 618 8 19 -0.16 3.74191 14.3805 4.41135 52.9243 63.5628 4.41135 1 1 0 -0.00102844 0.00601069 0.00739529 7.22512 14.3572 -7.03956 
2418 152 1 16 -0.4 3.91669 12.6291 2.03367 -143.63 61.8114 100.398 -3 1 2 -0.00228046 -0.0010663 -0.000771904 -7.87149 -9.58698 -20.0554 
9851 618 7 12.01 0.35 3.4281 15.6642 4.19179 52.6105 64.8466 4.19179 1 1 0 -0.00247827 0.0068948 -0.00240275 7.83126 -16.983 -3.23939 
9854 618 8 19 -0.16 3.93446 16.0269 2.99298 53.1168 65.2092 2.99298 1 1 0 -0.00515126 -0.00514248 0.000697036 -7.25378 -8.95438 19.9535 
2420 152 2 12.01 0.14 5.05772 11.7582 2.10911 -142.489 60.9406 100.474 -3 1 2 0.00888265 0.000994582 -0.00575885 1.38712 17.4735 5.71903 
2422 152 2 12.01 0.11 3.98596 13.6466 1.0196 -143.561 62.8289 99.3843 -3 1 2 -0.00105668 0.00446618 -0.00259833 -16.0513 -5.60434 24.9013 
2431 152 3 1.008 0.03 4.72336 14.295 1.50518 -142.824 63.4773 99.8699 -3 1 2 -0.0112857 0.0210696 0.00803971 -0.0289387 7.67392 -17.9386 
8105 507 3 1.008 0.03 8.06164 16.3226 6.74138 57.244 16.3226 105.106 1 0 2 -0.0290926 -0.025388 0.00902415 0.146724 1.274 -9.4146 
2425 152 3 1.008 0.03 5.82809 12.2973 2.69786 -141.719 61.4796 101.063 -3 1 2 0.0192414 -0.00377485 0.00391962 -9.90532 -7.30209 -3.87623 
8110 507 3 1.008 0.03 7.1242 14.0649 6.19762 56.3065 14.0649 104.562 1 0 2 -0.00705299 -0.00236864 -0.00129358 10.3669 8.33584 -18.0573 
2426 152 3 1.008 0.03 5.54431 11.5898 1.13645 -142.003 60.7721 99.5011 -3 1 2 -0.00285589 0.0151968 0.0132918 -7.67675 -3.68114 4.48708 
9847 618 4 14.01 -0.66 1.15138 15.037 3.00467 50.3337 64.2194 3.00467 1 1 0 -0.000223661 -0.00411147 0.00185568 5.1569 -31.0095 -14.2942 
650 41 3 1.008 0.03 2.37433 9.11346 5.48662 51.5567 9.11346 54.669 1 0 1 0.0369132 -0.018913 0.0338361 6.49201 7.82014 -6.43006 
646 41 2 12.01 0.11 1.99613 11.6225 6.56125 51.1785 11.6225 55.7436 1 0 1 0.00583446 0.00913371 0.000625665 -6.05179 28.1082 -12.7496 
642 41 1 16 -0.4 1.06414 10.577 6.37565 50.2465 10.577 55.558 1 0 1 0.00274292 0.00238983 -0.00549539 -1.1019 14.8381 -7.8197 
656 41 3 1.008 0.03 2.8188 11.5233 5.8825 52.0012 11.5233 55.0648 1 0 1 0.0457262 0.0122861 0.00545704 10.4538 -2.72703 -8.53098 
8112 507 3 1.008 0.03 8.11175 13.0322 5.21238 57.2941 13.0322 103.577 1 0 2 0.0107386 0.00116143 -0.00326747 -10.6064 22.5284 -13.5102 
8102 507 2 12.01 0.11 7.80375 14.1093 5.3105 56.9861 14.1093 103.675 1 0 2 -0.00127994 -0.00313897 -0.00599496 -9.87425 -15.7054 21.1831 
8106 507 3 1.008 0.03 8.21454 16.7094 4.94935 57.3969 16.7094 103.314 1 0 2 -0.0123262 0.00618694 0.00485425 18.574 -7.33281 29.4 
8111 507 3 1.008 0.03 7.23562 14.5721 4.46396 56.418 14.5721 102.829 1 0 2 0.0272088 -0.00265223 -0.00380021 11.8505 -16.645 8.71944 
9858 618 7 12.01 0.35 0.724776 16.3088 0.729349 49.9071 65.4911 0.729349 1 1 0 0.0057599 0.00232851 0.00246528 -49.6729 -16.0819 -6.49041 
649 41 3 1.008 0.03 2.10281 9.10903 7.29522 51.2852 9.10903 56.4776 1 0 1 0.0153292 -0.00657044 0.0187151 -1.12692 5.11161 -30.5947 
654 41 3 1.008 0.03 1.54557 12.6041 6.31088 50.7279 12.6041 55.4932 1 0 1 -0.00992426 0.0261057 0.00859869 0.283839 -14.0966 3.14523 
4471 280 3 1.008 0.03 7.61731 14.3092 0.891748 56.7997 14.3092 99.2564 1 0 2 0.00733869 0.0149821 -0.0136347 -4.4602 1.0607 -7.99287 
4477 280 3 1.008 0.03 8.38427 16.6902 0.450223 57.5666 16.6902 98.8149 1 0 2 -0.0324819 -0.000882928 0.0158526 4.34223 7.42278 10.692 
9638 604 5 32.06 1.02 13.1217 9.05636 2.85162 13.1217 58.2387 2.85162 0 1 0 -0.00401999 -0.00224328 -0.000778775 -49.431 0.85906 24.0369 
9643 604 8 19 -0.16 11.001 8.69873 1.32439 11.001 57.8811 1.32439 0 1 0 0.00481371 0.00763816 0.00397502 4.69194 13.2689 2.56666 
9640 604 6 16 -0.53 14.4853 8.8921 2.49618 14.4853 58.0745 2.49618 0 1 0 -0.00141449 0.00398417 -0.00251644 33.3075 1.2231 1.293 
9641 604 7 12.01 0.35 12.3232 8.77606 1.23947 12.3232 57.9584 1.23947 0 1 0 0.0121485 -0.0067287 -0.000476715 -22.6746 25.8545 -49.76 
9649 604 8 19 -0.16 9.74128 9.41952 3.35559 9.74128 58.6019 3.35559 0 1 0 -0.00631713 -0.00478443 0.00158882 0.119894 -8.48891 -6.0147 
4955 310 3 1.008 0.03 13.6644 9.93483 7.29606 62.8467 9.93483 7.29606 1 0 0 0.0280249 0.01078 -0.0253862 12.0373 14.569 -6.50773 
9646 604 6 16 -0.53 11.5066 8.90669 5.66012 11.5066 58.089 5.66012 0 1 0 0.00131726 0.00128823 -0.00342705 -13.4913 26.3418 21.7979 
8100 507 2 12.01 0.14 8.72124 16.247 5.86246 57.9036 16.247 104.227 1 0 2 -0.00290331 -0.00171801 0.00366084 5.80542 -17.1057 -10.6854 
4678 293 2 12.01 0.11 15.0154 13.0357 0.893806 -34.1669 62.218 50.0762 -1 1 1 0.0127673 -0.00350822 -0.000860575 3.4274 -5.58084 2.56995 
8098 507 1 16 -0.4 8.9821 14.8302 5.62876 58.1645 14.8302 103.993 1 0 2 -0.000700348 0.00136264 -0.00137564 -11.1726 25.4469 1.51724 
4953 310 3 1.008 0.03 12.1233 13.6465 4.8049 61.3056 13.6465 4.8049 1 0 0 -0.0389942 -0.0280664 0.0259909 5.29935 -0.0973073 -3.47185 
4954 310 3 1.008 0.03 11.7626 14.2811 6.3722 60.9449 14.2811 6.3722 1 0 0 0.0210802 -0.0188195 0.00434984 26.4968 -11.8646 -5.61701 
4948 310 2 12.01 0.14 12.5507 13.7018 5.80673 61.733 13.7018 5.80673 1 0 0 0.000727329 -0.00450196 0.00213077 -0.0486533 -12.8575 27.7482 
4946 310 1 16 -0.4 13.902 14.2545 5.86573 63.0843 14.2545 5.86573 1 0 0 0.00211472 -0.00428743 0.00338441 -2.97631 24.7575 -9.05171 
7794 488 1 16 -0.4 16.0484 12.6682 5.28915 65.2307 12.6682 5.28915 1 0 0 0.00271233 0.00157795 0.00255798 -5.57121 -17.7191 4.20123 
4947 310 2 12.01 0.14 12.6987 12.2392 6.35467 61.8811 12.2392 6.35467 1 0 0 0.00657515 0.00122611 -0.00312151 0.665782 10.9002 -36.3148 
4951 310 3 1.008 0.03 12.7874 11.5579 5.49855 61.9697 11.5579 5.49855 1 0 0 -0.00683054 0.017833 -0.00371846 9.56121 5.61348 5.34336 
7798 488 2 12.01 0.11 15.6995 11.5432 4.45145 64.8818 11.5432 4.45145 1 0 0 0.000909045 0.00172664 0.00422999 -56.951 24.977 -17.3275 
7807 488 3 1.008 0.03 16.35 11.2804 3.63947 65.5323 11.2804 3.63947 1 0 0 -0.00490166 -0.008635 0.00415948 19.5495 -4.48958 0.472384 
7808 488 3 1.008 0.03 15.5416 10.7081 5.10835 64.7239 10.7081 5.10835 1 0 0 -0.00970192 -0.0037638 -0.00820948 -1.83064 -12.5687 1.26155 
4674 293 1 16 -0.4 16.2831 13.2619 1.45972 -32.8992 62.4443 50.6421 -1 1 1 -0.00146681 0.00663552 0.00276645 -1.43561 5.10005 -0.0207708 
7806 488 3 1.008 0.03 14.7222 11.7288 3.86402 63.9046 11.7288 3.86402 1 0 0 -0.00634752 0.0040806 -0.0271129 36.1879 -1.76692 30.1414 
4687 293 3 1.008 0.03 14.2815 13.1057 1.64839 -34.9009 62.2881 50.8307 -1 1 1 0.000716593 -0.0174525 -0.0212367 -16.6224 18.107 15.6646 
4950 310 2 12.01 0.11 13.8479 15.5889 5.24528 63.0302 15.5889 5.24528 1 0 0 0.00278882 -0.00363379 0.00331754 -32.2765 1.48052 37.8844 
4960 310 3 1.008 0.03 13.2157 16.2753 5.91169 62.3981 16.2753 5.91169 1 0 0 0.004225 0.00380345 0.000734602 13.9383 -25.2523 -25.9404 
4959 310 3 1.008 0.03 13.3472 15.3823 4.29141 62.5296 15.3823 4.29141 1 0 0 -0.017962 0.00448575 0.003777 5.59492 19.0856 -2.98155 
4958 310 3 1.008 0.03 14.7499 16.2074 5.11098 63.9322 16.2074 5.11098 1 0 0 0.0019332 -0.00439251 -0.043346 2.78702 -17.8415 -1.22431 
10454 665 9 24.305 2 15.3623 13.3029 7.00737 64.5447 13.3029 7.00737 1 0 0 0.00403443 -0.00126909 -0.00550625 -19.3414 5.69176 5.12872 
4945 310 1 16 -0.4 13.8128 12.0804 7.23375 62.9951 12.0804 7.23375 1 0 0 -0.006266 -0.00659182 -0.000551261 13.9995 30.3575 -18.7062 
7801 488 3 1.008 0.03 15.8395 14.388 4.11709 65.0218 14.388 4.11709 1 0 0 0.00984249 -0.00283217 -0.00637213 16.1517 -19.1938 4.20517 
7796 488 2 12.01 0.14 16.6231 13.6877 4.51348 65.8055 13.6877 4.51348 1 0 0 0.00463329 -0.00385959 -0.00682752 -9.69577 27.4294 -35.6171 
9639 604 6 16 -0.53 12.6427 10.402 3.2093 12.6427 59.5844 3.2093 0 1 0 -0.000824389 0.00452141 0.00260704 14.3615 -33.9018 -7.99271 
4952 310 3 1.008 0.03 11.7765 11.8834 6.72865 60.9588 11.8834 6.72865 1 0 0 -0.00203565 -0.00834101 0.00858441 -21.3525 0.451215 16.8836 
4478 280 3 1.008 0.03 11.2446 12.0661 1.54166 60.4269 12.0661 99.9064 1 0 2 0.00100472 -0.0195725 0.00305939 -16.6693 0.342253 8.39275 
4466 280 1 16 -0.4 9.59136 12.9145 0.627943 58.7737 12.9145 98.9926 1 0 2 0.00297188 -0.00496699 0.00133802 -3.22985 -13.9142 0.407212 
4686 293 3 1.008 0.03 14.8441 12.0012 0.681295 -34.3383 61.1836 49.8636 -1 1 1 -0.0121725 -0.0142184 0.00611407 7.56051 -12.8227 -16.7495 
8103 507 3 1.008 0.03 10.5779 16.1373 6.88862 59.7603 16.1373 105.253 1 0 2 0.0172045 0.0175471 -0.0217626 19.0613 -19.2628 17.8153 
4479 280 3 1.008 0.03 9.87628 10.9129 1.26872 59.0586 10.9129 99.6334 1 0 2 -0.00632117 0.00604315 0.0295245 6.51186 5.79817 -4.73291 
4470 280 2 12.01 0.11 10.421 11.7863 0.868409 59.6033 11.7863 99.2331 1 0 2 -0.00044962 0.00113165 0.0105385 19.6019 2.95048 7.4635 
824 52 3 1.008 0.03 21.8061 16.7524 0.60578 -27.3763 65.9348 -48.5766 -1 1 -1 0.0265881 0.00172889 -0.00173528 10.6121 -10.8713 -1.05386 
10160 638 8 19 -0.16 16.8683 8.73808 4.92535 16.8683 8.73808 54.1077 0 0 1 0.00158152 0.00334944 0.000632425 -5.46237 11.1938 6.14425 
8053 504 2 12.01 0.11 23.1261 14.5336 6.60663 72.3085 63.716 104.971 1 1 2 0.00167064 -0.00595357 0.00586011 -25.691 23.0594 -13.1277 
4683 293 3 1.008 0.03 20.2904 10.8594 2.29854 -28.8919 60.0417 51.4809 -1 1 1 -0.0109775 0.000691285 0.0209606 1.69721 -1.11366 4.54309 
10147 638 4 14.01 -0.66 18.1084 10.7533 7.10926 18.1084 10.7533 56.2916 0 0 1 -0.00451609 0.001964 -0.00214988 -4.4807 -13.6238 -12.4605 
828 52 3 1.008 0.03 21.9842 13.5818 2.19992 -27.1982 62.7641 -46.9824 -1 1 -1 0.0371866 0.00654986 -0.00445697 -9.54936 5.22375 -2.75854 
4680 293 3 1.008 0.03 17.6596 11.1377 1.43003 -31.5227 60.3201 50.6124 -1 1 1 -0.0147726 -0.0241171 0.00597424 -6.34345 -9.30314 13.944 
817 52 1 16 -0.4 22.8455 15.1429 1.34067 -26.3369 64.3253 -47.8417 -1 1 -1 0.000586603 -0.00374391 -0.00168636 6.29041 18.2745 -22.2312 
7793 488 1 16 -0.4 16.8285 14.6375 6.62443 66.0109 14.6375 6.62443 1 0 0 -0.00234987 -0.00215424 -0.00522528 11.268 -9.93887 -15.5655 
4673 293 1 16 -0.4 19.1841 12.5086 1.9259 -29.9982 61.6909 51.1083 -1 1 1 -0.000567511 -0.00178399 0.0049738 0.476962 14.6432 9.8004 
6025 377 3 1.008 0.03 18.7848 15.9634 2.17594 117.149 65.1458 2.17594 2 1 0 0.0039644 -0.0102525 0.00213936 24.9862 -33.0646 14.5504 
8063 504 3 1.008 0.03 24.1883 9.04901 5.4099 73.3706 58.2314 103.775 1 1 2 0.00649697 0.0150434 0.00434021 5.29558 -4.96982 -2.92654 