ITEM: TIMESTEP
2600000
ITEM: NUMBER OF ATOMS
10479
ITEM: BOX BOUNDS pp pp pp
4.0882558190751794e-01 4.9591174418091420e+01
4.0882558190751794e-01 4.9591174418091420e+01
4.0882558190751794e-01 4.9591174418091420e+01
ITEM: ATOMS id mol type mass q x y z xu yu zu ix iy iz vx vy vz fx fy fz 
10128 636 7 12.01 0.35 6.94749 6.82514 3.50557 6.94749 6.82514 52.6879 0 0 1 0.00293876 0.000758388 -0.00369382 -33.2754 31.2171 8.13396 
10129 636 8 19 -0.16 5.87171 6.08024 3.38627 5.87171 6.08024 52.5686 0 0 1 0.000813892 0.00116523 0.00217413 -2.33278 -14.2374 9.20095 
2241 141 1 16 -0.4 6.32641 2.65544 4.11169 6.32641 2.65544 53.294 0 0 1 -0.00349494 -0.00156545 -0.00511533 -68.6853 -17.4007 15.7873 
2253 141 3 1.008 0.03 5.13067 1.19726 3.20183 5.13067 1.19726 52.3842 0 0 1 -0.012046 -0.00263775 0.00453402 -6.71629 6.17555 -7.52516 
2245 141 2 12.01 0.11 5.30689 2.27521 3.08996 5.30689 2.27521 52.2723 0 0 1 -0.00356746 -0.00705175 0.0064812 51.1604 7.66925 46.8461 
10130 636 8 19 -0.16 6.47444 8.06897 3.41839 6.47444 8.06897 52.6007 0 0 1 0.0012245 0.00383806 0.000260161 7.86215 -6.17231 2.34513 
2252 141 3 1.008 0.03 5.73127 2.49864 2.13575 5.73127 2.49864 51.3181 0 0 1 -0.0101837 0.00256529 0.0208791 4.39203 -2.54564 -15.4985 
2243 141 2 12.01 0.14 5.82285 2.2667 5.4649 5.82285 2.2667 54.6472 0 0 1 0.00179826 0.0001456 -0.00208355 -30.3415 17.9585 -42.4237 
2251 141 3 1.008 0.03 4.42053 2.88286 3.17109 4.42053 2.88286 52.3534 0 0 1 -0.0238697 -0.0142678 0.000611476 -11.0635 -0.830741 4.61345 
1466 92 3 1.008 0.03 4.13028 4.47912 0.690484 -45.0521 -44.7032 -48.4919 -1 -1 -1 -0.015393 -0.0243436 -0.0174631 -0.0112508 6.2089 -14.1769 
1169 74 1 16 -0.4 0.988124 2.0677 1.73729 0.988124 51.25 50.9196 0 1 1 -0.00175207 -0.000833832 0.00234051 4.94421 -25.0963 -13.0912 
1180 74 3 1.008 0.03 1.47567 4.12 2.1859 1.47567 53.3023 51.3682 0 1 1 -0.0265153 0.00264477 -0.00555349 -23.1795 -36.3805 4.93366 
1173 74 2 12.01 0.11 0.656701 3.32202 2.29484 0.656701 52.5044 51.4772 0 1 1 0.00358747 -0.00612254 -0.00101353 12.8691 30.0115 6.72112 
2248 141 3 1.008 0.03 5.88756 1.20424 5.47446 5.88756 1.20424 54.6568 0 0 1 -0.0013857 -0.00799068 -0.0243708 3.59405 -17.3814 9.84924 
4483 281 2 12.01 0.14 2.33582 7.14078 5.24282 100.701 -42.0416 152.79 2 -1 3 -0.00753252 -0.000676093 -0.00351319 63.6273 58.3178 -42.934 
4484 281 2 12.01 0.14 1.28113 6.23577 5.50412 99.6458 -42.9466 153.051 2 -1 3 -0.0063956 -0.00304015 0.00312185 -49.3218 -65.8397 65.1874 
4488 281 3 1.008 0.03 3.14692 6.89574 5.88486 101.512 -42.2866 153.432 2 -1 3 -0.0025967 -0.0108499 -0.015553 16.1122 -6.53253 9.1985 
2247 141 3 1.008 0.03 4.73172 2.44847 5.763 4.73172 2.44847 54.9454 0 0 1 0.022192 0.0144001 -0.0213741 32.4205 2.27996 -24.6815 
10126 636 6 16 -0.53 6.96391 6.61553 6.17151 6.96391 6.61553 55.3539 0 0 1 -0.00659394 0.00398833 0.000677109 -30.412 -6.21553 0.0907657 
4489 281 3 1.008 0.03 1.68901 5.22566 5.86519 100.054 -43.9567 153.412 2 -1 3 0.00879055 -0.0100795 -0.00361886 -12.652 31.4942 -20.1486 
4482 281 1 16 -0.4 0.553756 6.09561 4.31889 98.9185 -43.0867 151.866 2 -1 3 -0.00381584 -0.00273641 0.00275043 20.1634 1.76582 -27.681 
4490 281 3 1.008 0.03 0.693208 6.56189 6.39673 99.0579 -42.6205 153.944 2 -1 3 -0.00848439 0.0226134 -0.0254859 4.37231 0.177287 -20.8346 
1022 64 3 1.008 0.03 1.53323 6.12905 1.44328 50.7156 -92.2356 99.808 1 -2 2 -0.0327174 -0.006095 0.0119904 -21.801 31.5335 -13.6534 
1179 74 3 1.008 0.03 0.485637 3.14526 3.36636 0.485637 52.3276 52.5487 0 1 1 0.0112531 -0.016872 -0.00484862 -2.18107 8.89949 -5.37418 
1469 92 3 1.008 0.03 6.27246 8.02504 0.61789 -42.9099 -41.1573 -48.5645 -1 -1 -1 -0.00133798 0.0270307 -0.0150303 2.51005 12.8103 -7.81257 
10125 636 5 32.06 1.02 7.88082 6.5802 5.08351 7.88082 6.5802 54.2659 0 0 1 -0.00139029 1.85641e-05 0.00133041 18.9073 -6.10647 20.3669 
10131 636 8 19 -0.16 7.60842 6.6278 2.40184 7.60842 6.6278 51.5842 0 0 1 0.00632216 0.000815932 0.00260885 23.9553 -5.2846 -8.44692 
974 61 3 1.008 0.03 8.59057 2.20059 2.44472 8.59057 2.20059 51.6271 0 0 1 0.00605266 -0.0291398 -0.00799418 -15.4555 -32.9194 -26.5657 
975 61 3 1.008 0.03 8.21543 3.72286 3.08426 8.21543 3.72286 52.2666 0 0 1 -0.00131595 0.021444 -0.00827988 -12.437 12.5197 -0.24036 
2242 141 1 16 -0.4 8.04989 2.74471 6.32976 8.04989 2.74471 55.5121 0 0 1 -0.00710298 0.00764963 -0.00116885 14.3736 14.7346 -12.4386 
10127 636 6 16 -0.53 8.5922 5.3061 4.95906 8.5922 5.3061 54.1414 0 0 1 0.0014374 0.00159059 -0.004388 0.666997 8.26928 -7.11487 
2254 141 3 1.008 0.03 7.85551 0.9002 7.28091 7.85551 0.9002 56.4633 0 0 1 0.0108432 -0.0235792 0.0311886 -7.50203 -6.02253 10.6262 
4487 281 3 1.008 0.03 2.70672 7.05806 4.17091 101.071 -42.1243 151.718 2 -1 3 -0.0103047 0.00773224 0.00669097 -8.69885 1.74222 29.7722 
4481 281 1 16 -0.4 2.01283 8.5046 5.56174 100.378 -40.6777 153.109 2 -1 3 -0.00375054 0.000383113 -0.00221045 -25.0112 -15.771 -11.5145 
2255 141 3 1.008 0.03 8.0467 0.87696 5.54108 8.0467 0.87696 54.7234 0 0 1 0.0050435 0.0391193 -0.00177075 -9.64085 -16.398 -19.886 
1014 64 2 12.01 0.11 0.868803 7.01881 1.15783 50.0512 -91.3459 99.5225 1 -2 2 0.00373964 0.00153611 -0.00609264 41.2233 -6.85762 15.5075 
2246 141 2 12.01 0.11 8.31465 1.36566 6.4324 8.31465 1.36566 55.6147 0 0 1 -0.00171178 0.00126347 -0.00265977 55.424 -3.1196 13.3891 
2244 141 2 12.01 0.14 6.6504 2.99869 6.47668 6.6504 2.99869 55.659 0 0 1 -0.00281566 -0.000126694 0.00190514 -8.30692 26.0384 47.4734 
2249 141 3 1.008 0.03 6.41151 4.08811 6.37793 6.41151 4.08811 55.5603 0 0 1 -0.00423659 -0.0100829 -0.0109542 9.92704 -20.8158 -0.71375 
1023 64 3 1.008 0.03 1.45836 7.96543 1.18407 50.6407 -90.3993 99.5488 1 -2 2 -0.000852547 -0.00379805 0.0193262 -6.41068 -15.076 3.29255 
970 61 3 1.008 0.03 10.1755 0.736343 3.73542 10.1755 0.736343 52.9178 0 0 1 -0.0224663 0.00340621 -0.0153515 1.70213 -1.92799 3.54809 
7930 496 3 1.008 0.03 12.8086 5.1853 6.54535 12.8086 5.1853 55.7277 0 0 1 -0.0137788 -0.0174313 0.00064051 21.3176 -10.5981 7.49925 
10117 636 4 14.01 -0.66 8.81766 7.82039 5.15672 8.81766 7.82039 54.3391 0 0 1 -7.52837e-05 -0.000538195 0.000536636 17.0748 -28.7676 -46.8994 
966 61 2 12.01 0.11 9.001 3.05203 2.84748 9.001 3.05203 52.0298 0 0 1 0.00738181 0.00600986 -0.00091427 26.0641 6.25471 15.5629 
976 61 3 1.008 0.03 9.71928 3.54766 2.24303 9.71928 3.54766 51.4254 0 0 1 0.0133447 -0.0193634 0.0272695 3.57734 5.22381 -23.2313 
7936 496 3 1.008 0.03 11.8859 4.4327 3.01203 11.8859 4.4327 52.1944 0 0 1 -0.0208523 0.0260558 -0.0143399 0.380965 -0.430099 32.9461 
962 61 1 16 -0.4 9.73946 2.69072 3.97383 9.73946 2.69072 53.1562 0 0 1 0.00679581 -0.004447 -0.0013588 -2.04301 18.3898 34.0847 
967 61 3 1.008 0.03 12.6896 2.07951 4.7522 12.6896 2.07951 53.9345 0 0 1 0.00465701 0.00820854 -0.00708269 -7.69876 -3.29134 -8.48492 
7926 496 2 12.01 0.11 12.0808 5.05426 3.93078 12.0808 5.05426 53.1131 0 0 1 -0.000683264 0.00248061 -0.00179849 -15.5432 -3.76717 -19.8648 
7935 496 3 1.008 0.03 13.143 5.07121 4.10941 13.143 5.07121 53.2918 0 0 1 0.0129882 0.00109925 -0.0231399 7.16406 -0.0681731 0.865331 
7934 496 3 1.008 0.03 11.7766 6.01838 3.55736 11.7766 6.01838 52.7397 0 0 1 -0.0300321 0.0288658 -0.0170377 4.1275 10.1952 1.23647 
7922 496 1 16 -0.4 11.3262 4.85492 5.14452 11.3262 4.85492 54.3269 0 0 1 -0.0028407 -0.000198956 0.00189941 2.15025 -3.32745 -9.05686 
10461 672 9 24.305 2 9.68794 3.66765 5.57424 9.68794 3.66765 54.7566 0 0 1 -0.00164929 -0.00382179 0.00101518 7.11852 15.8733 21.0158 
961 61 1 16 -0.4 11.2529 2.54634 6.05566 11.2529 2.54634 55.238 0 0 1 0.000169598 0.00255312 -0.00189693 -17.5063 -0.439584 11.3713 
4015 251 3 1.008 0.03 15.2611 4.79175 2.89573 64.4434 53.9741 150.443 1 1 3 0.019062 -0.0176655 -0.00626106 -3.63107 0.064929 -4.2301 
964 61 2 12.01 0.14 10.7083 1.68369 3.80358 10.7083 1.68369 52.9859 0 0 1 -0.010409 -0.00050511 -0.00300753 25.5308 -8.01437 -18.4307 
963 61 2 12.01 0.14 11.6844 1.71777 5.02089 11.6844 1.71777 54.2032 0 0 1 -0.00120819 -0.00247247 -0.00477095 10.9924 -5.55623 -34.4029 
7499 469 3 1.008 0.03 15.7221 6.95126 4.35949 114.087 -42.2311 102.724 2 -1 2 -0.0179915 0.00477801 -0.0108156 -2.44683 8.43496 -6.48491 
969 61 3 1.008 0.03 11.3048 1.75101 2.85281 11.3048 1.75101 52.0352 0 0 1 -0.00882731 0.00262057 -0.00274183 -15.0358 2.52547 22.3797 
7500 469 3 1.008 0.03 15.7257 7.94534 5.69905 114.09 -41.237 104.064 2 -1 2 0.0379127 0.00212263 -0.0194818 0.767248 6.7963 16.8981 
4006 251 2 12.01 0.11 15.5122 3.98615 3.5756 64.6945 53.1685 151.123 1 1 3 0.00528072 0.00771634 0.00192919 68.6164 -28.6342 -24.0286 
4002 251 1 16 -0.4 15.5417 4.43762 4.89303 64.7241 53.62 152.44 1 1 3 -0.000984274 0.00776312 -0.00269037 -22.9077 25.798 4.48269 
4014 251 3 1.008 0.03 15.0016 3.07362 3.34472 64.184 52.256 150.892 1 1 3 -0.0249376 0.0278806 -0.00595924 -23.3001 -4.37224 5.82333 
7493 469 2 12.01 0.11 15.7781 8.01266 4.63666 114.143 -41.1697 103.001 2 -1 2 0.0034453 -0.00743585 0.0120895 13.5026 -13.2971 -14.783 
7924 496 2 12.01 0.14 11.9147 5.62498 6.21522 11.9147 5.62498 55.3976 0 0 1 -2.21172e-05 0.00306164 0.000467637 -49.8507 -1.30067 -16.1451 
9640 604 6 16 -0.53 11.7841 2.47128 0.530362 11.7841 51.6536 0.530362 0 1 0 -0.00164468 -0.00479558 -0.0070195 -8.83635 8.31369 -11.0755 
7929 496 3 1.008 0.03 12.1129 6.6231 5.83387 12.1129 6.6231 55.0162 0 0 1 -0.017135 0.0165495 -0.0221356 4.60729 5.2643 6.12277 
4680 293 3 1.008 0.03 16.1825 7.31843 1.89441 -32.9998 56.5008 51.0768 -1 1 1 -0.00749103 0.0194606 -0.038964 17.1982 5.08904 17.6355 
4016 251 3 1.008 0.03 16.5624 3.60082 3.32223 65.7447 52.7832 150.869 1 1 3 -0.00555532 -0.0180457 0.00310537 -31.7536 24.6846 4.08031 
9647 604 6 16 -0.53 11.0142 5.35294 0.829435 11.0142 54.5353 0.829435 0 1 0 0.00755706 -0.00217378 0.00359962 -12.5721 3.53911 -8.89748 
4010 251 3 1.008 0.03 15.3688 2.62213 5.83451 64.5512 51.8045 153.382 1 1 3 -0.0130556 0.00640984 -0.00946546 6.35655 15.4419 9.38014 
4004 251 2 12.01 0.14 15.9937 3.54493 5.84981 65.176 52.7273 153.397 1 1 3 0.00153471 -0.0044468 -0.00622664 -3.52882 -27.1759 -26.5553 
4003 251 2 12.01 0.14 16.0638 4.30823 7.15789 65.2462 53.4906 154.705 1 1 3 -0.00407977 0.000843474 0.000527541 22.2151 -10.7473 -0.953738 
4007 251 3 1.008 0.03 16.6445 5.21925 7.12502 65.8269 54.4016 154.672 1 1 3 0.00154813 0.00689458 -0.013154 -7.87684 8.09453 -15.1481 
4687 293 3 1.008 0.03 11.9702 7.90628 2.37859 -37.2122 57.0886 51.5609 -1 1 1 0.00922946 -0.0216421 0.0182471 5.91185 10.0579 -5.67061 
4679 293 3 1.008 0.03 15.7989 5.90206 0.874446 -33.3835 55.0844 50.0568 -1 1 1 0.00774883 -0.00284108 -0.0160236 -1.88518 18.9774 12.0877 
7501 469 3 1.008 0.03 14.87 8.5092 4.25927 113.235 -40.6731 102.624 2 -1 2 0.000426511 -0.00207604 0.0085114 9.16623 0.574423 2.40353 
2256 141 3 1.008 0.03 9.42611 1.17245 6.50883 9.42611 1.17245 55.6912 0 0 1 0.021981 0.0326315 0.0188718 -32.5804 3.45676 3.58576 
4675 293 2 12.01 0.14 15.7325 7.01348 0.991236 -33.4499 56.1958 50.1736 -1 1 1 -0.00434421 0.00126575 -0.00089761 -36.7026 -20.4415 -33.1247 
968 61 3 1.008 0.03 11.8261 0.70094 5.32614 11.8261 0.70094 54.5085 0 0 1 -0.0194817 -0.00209094 -0.0400614 1.06081 -12.8582 8.19442 
4676 293 2 12.01 0.14 14.2191 7.41225 0.971242 -34.9632 56.5946 50.1536 -1 1 1 -0.00355612 -0.00646606 -0.007653 -15.577 7.56758 37.9196 
971 61 3 1.008 0.03 13.1868 2.57589 6.85318 13.1868 2.57589 56.0355 0 0 1 0.0220256 0.0148901 0.00526029 -14.6629 -5.22247 13.2167 
4682 293 3 1.008 0.03 13.6566 6.60763 1.51563 -35.5258 55.79 50.698 -1 1 1 0.0168272 0.009711 0.0490243 12.9376 11.189 -14.4574 
965 61 2 12.01 0.11 12.1381 2.34322 7.16183 12.1381 2.34322 56.3442 0 0 1 -0.0026594 -0.00661033 -0.00492431 -6.99276 -12.1232 6.733 
7921 496 1 16 -0.4 9.95389 4.56817 7.27243 9.95389 4.56817 56.4548 0 0 1 -0.0057662 -0.00178222 0.00117105 -28.99 5.67241 34.5563 
7927 496 3 1.008 0.03 10.211 6.541 7.18524 10.211 6.541 56.3676 0 0 1 0.00874524 0.0233205 -0.00695647 0.149058 4.86636 -3.94313 
7923 496 2 12.01 0.14 10.8239 5.66261 7.31784 10.8239 5.66261 56.5002 0 0 1 -0.00679397 0.0110215 -0.0104216 30.9697 22.119 16.0803 
8587 537 3 1.008 0.03 23.8952 7.88906 4.79528 23.8952 7.88906 4.79528 0 0 0 -0.0100801 -0.0193434 -0.0204825 -17.7625 -10.219 -14.3165 
2379 149 3 1.008 0.03 20.6628 0.891444 4.86427 20.6628 50.0738 4.86427 0 1 0 -0.00483468 0.000143245 0.0144597 3.00417 2.4271 -1.13188 
5916 370 3 1.008 0.03 18.37 0.79647 2.40266 18.37 49.9788 2.40266 0 1 0 0.0458101 -0.00204528 0.00662614 4.17021 6.69683 6.47797 
4807 301 3 1.008 0.03 18.6046 1.72024 6.65822 18.6046 50.9026 55.8406 0 1 1 0.0117791 -0.0129205 -0.00142411 2.56984 -5.95607 8.89142 
5915 370 3 1.008 0.03 18.6169 2.299 1.59361 18.6169 51.4814 1.59361 0 1 0 0.0107497 0.00381181 -0.0147892 6.3468 -4.68659 -2.56464 
4009 251 3 1.008 0.03 16.9475 3.25021 5.42247 66.1299 52.4326 152.97 1 1 3 -0.00441729 0.00276088 0.000571425 10.4218 -2.38242 16.8251 
7495 469 3 1.008 0.03 18.3984 7.57053 5.27219 116.763 -41.6118 103.637 2 -1 2 -0.00558192 0.0162385 -0.0170198 3.11345 2.81532 0.863309 
7491 469 2 12.01 0.14 18.1454 7.77802 4.23343 116.51 -41.4043 102.598 2 -1 2 0.00147337 0.00346351 -0.00552726 7.09379 -10.4157 -0.553661 
5266 330 1 16 -0.4 20.1975 4.81675 1.1477 69.3798 -44.3656 -48.0347 1 -1 -1 -0.00318857 0.000316282 0.000167593 0.384966 8.65681 -3.41674 
4814 301 3 1.008 0.03 19.6158 5.36527 4.93668 19.6158 54.5476 54.119 0 1 1 -0.00784116 -0.00384231 -0.0151843 -11.1248 6.52202 -6.32033 
5917 370 3 1.008 0.03 18.9562 2.21064 3.30838 18.9562 51.393 3.30838 0 1 0 -0.00196672 -0.0212534 0.0103601 -0.347401 5.55401 11.0197 
8589 537 3 1.008 0.03 22.7656 7.3993 3.42915 22.7656 7.3993 3.42915 0 0 0 -0.0223223 0.00345507 0.0080533 -6.01595 6.92225 15.0209 
5910 370 2 12.01 0.11 23.9131 1.65563 2.89248 23.9131 50.838 2.89248 0 1 0 0.00554275 0.0086589 0.00445001 6.98988 0.3305 -8.02175 
5279 330 3 1.008 0.03 18.2591 4.29517 1.62594 67.4414 -44.8872 -47.5564 1 -1 -1 -0.00265583 -0.0247891 -0.0008648 4.55423 15.6271 0.0359302 
5918 370 3 1.008 0.03 24.6458 1.32853 3.65481 24.6458 50.5109 3.65481 0 1 0 0.00283794 0.0371537 -0.00408279 -8.7328 0.171128 -11.666 
5280 330 3 1.008 0.03 18.6272 5.98821 1.82295 67.8096 -43.1941 -47.3594 1 -1 -1 0.0121584 0.0162722 0.00205568 0.604074 15.6725 12.0836 
5919 370 3 1.008 0.03 24.4601 2.2089 2.11646 24.4601 51.3913 2.11646 0 1 0 -0.00225055 -0.00401538 0.0378947 0.456768 1.33757 8.3377 
4802 301 1 16 -0.4 19.9485 3.38113 5.30188 19.9485 52.5635 54.4842 0 1 1 0.000783044 0.000598784 0.000466849 -1.00735 -33.893 -5.24313 
4806 301 2 12.01 0.11 20.2945 4.56609 4.69998 20.2945 53.7484 53.8823 0 1 1 -0.00256023 0.00103177 0.00902089 21.8804 15.6314 -28.6156 
5270 330 2 12.01 0.11 18.8119 5.14986 1.20253 67.9943 -44.0325 -47.9798 1 -1 -1 0.00169338 0.00139909 0.0121939 -13.8573 -16.9137 -21.1016 
8579 537 2 12.01 0.14 22.3933 7.40236 6.7798 22.3933 7.40236 6.7798 0 0 0 -0.000625679 0.00359461 0.00621827 -67.8358 19.3257 -4.62565 
8577 537 1 16 -0.4 21.9447 7.7004 5.45395 21.9447 7.7004 5.45395 0 0 0 0.000169915 -0.00897426 -0.00243563 8.06996 -2.10873 -7.72104 
8581 537 2 12.01 0.11 22.9581 7.32847 4.5199 22.9581 7.32847 4.5199 0 0 0 -0.00179485 0.00246927 -0.00543718 23.708 7.32623 9.96094 
4816 301 3 1.008 0.03 20.4933 4.4587 3.59976 20.4933 53.6411 52.7821 0 1 1 -0.00727592 -0.00407067 0.0180163 -11.1069 2.53137 23.1881 
8588 537 3 1.008 0.03 23.1672 6.28483 4.7199 23.1672 6.28483 4.7199 0 0 0 0.00451607 -0.0117342 -0.0104812 4.26389 -6.03779 -5.62788 
4815 301 3 1.008 0.03 21.2264 4.88584 5.11727 21.2264 54.0682 54.2996 0 1 1 0.00918511 0.00614068 0.00481844 12.8097 3.29194 4.39641 
5908 370 2 12.01 0.14 22.4074 1.15193 1.05455 22.4074 50.3343 1.05455 0 1 0 0.000897572 -0.00234846 -8.91809e-05 27.3899 -9.25437 57.311 
5920 370 3 1.008 0.03 23.2317 2.30483 3.40408 23.2317 51.4872 3.40408 0 1 0 0.0235267 0.0185434 -0.0180552 -3.40405 13.4759 5.6665 
5907 370 2 12.01 0.14 21.2677 2.02638 1.48638 21.2677 51.2087 1.48638 0 1 0 -5.56014e-05 -0.00570391 0.00497015 -43.6631 8.61144 -54.1998 
5912 370 3 1.008 0.03 21.4393 2.84554 2.15122 21.4393 52.0279 2.15122 0 1 0 0.00787402 -0.00167059 -0.023921 14.4752 13.3739 1.44783 
5271 330 3 1.008 0.03 22.4594 5.14194 1.68114 71.6417 -44.0404 -47.5012 1 -1 -1 -0.0031071 0.00283368 0.019067 0.94138 -7.66402 25.0767 
5909 370 2 12.01 0.11 19.0306 1.67771 2.38342 19.0306 50.8601 2.38342 0 1 0 -0.00137553 0.00370312 -0.00250573 -2.33466 -9.19665 -19.1481 
2375 149 3 1.008 0.03 22.9169 0.698258 5.71878 22.9169 49.8806 5.71878 0 1 0 0.0140105 -0.0132694 0.00402556 -4.72597 27.4352 2.29966 
8583 537 3 1.008 0.03 22.4963 6.35054 6.89807 22.4963 6.35054 6.89807 0 0 0 0.012682 0.0225855 -0.0171495 14.7376 -17.8693 0.929951 
5905 370 1 16 -0.4 20.3506 1.20941 2.13228 20.3506 50.3918 2.13228 0 1 0 0.00203082 -0.000806166 -0.0017073 -9.65825 -28.9156 6.00615 
7496 469 3 1.008 0.03 17.8322 6.8105 3.80662 116.197 -42.3719 102.171 2 -1 2 -0.00363613 0.00496722 -0.012932 10.456 6.55337 0.424199 
4803 301 2 12.01 0.14 19.2668 2.23309 7.36668 19.2668 51.4154 56.549 0 1 1 0.000516935 -0.00310404 0.00098119 -5.89556 5.38601 9.03425 
4804 301 2 12.01 0.14 19.7383 3.507 6.67645 19.7383 52.6893 55.8588 0 1 1 -0.00250925 -0.00543841 -0.00075707 -42.8402 42.4489 33.4025 
5914 370 3 1.008 0.03 23.0421 1.81822 0.527966 23.0421 51.0006 0.527966 0 1 0 -0.0201938 -0.007647 0.000378411 16.2075 2.63025 -16.852 
7498 469 3 1.008 0.03 20.1194 7.70578 3.48416 118.484 -41.4766 101.849 2 -1 2 0.00624491 -0.0141451 0.00134714 33.2752 -13.7574 -1.23222 
7492 469 2 12.01 0.14 19.3446 8.40018 3.44216 117.709 -40.7822 101.807 2 -1 2 0.00306808 0.00451663 -0.00395822 -58.6803 30.4377 2.1428 
7503 469 3 1.008 0.03 20.7194 8.58443 1.51756 119.084 -40.5979 99.8823 2 -1 2 -0.00406561 0.00225395 0.0164369 32.0269 -9.83002 -5.1865 
8584 537 3 1.008 0.03 23.2852 7.92186 6.97003 23.2852 7.92186 6.97003 0 0 0 0.0190261 0.00261887 0.0116647 24.3081 12.0755 11.7915 
4809 301 3 1.008 0.03 18.9258 4.27293 6.7827 18.9258 53.4553 55.9651 0 1 1 0.0194339 0.00334168 -0.0118756 10.0463 -20.9095 -4.09016 
5906 370 1 16 -0.4 23.1151 0.642411 2.2659 23.1151 49.8248 2.2659 0 1 0 -2.02189e-05 0.00298761 -0.00166348 -9.27771 -5.28365 -21.2366 
5911 370 3 1.008 0.03 20.8717 2.3716 0.466953 20.8717 51.554 0.466953 0 1 0 0.0205373 0.0255169 0.0211743 3.63891 -2.11011 40.3695 
5267 330 2 12.01 0.14 22.4674 5.35605 0.650727 71.6498 -43.8263 -48.5316 1 -1 -1 0.0107126 -0.00299218 -0.00464274 13.8917 -22.7067 -11.1542 
4810 301 3 1.008 0.03 20.4702 4.01325 7.29208 20.4702 53.1956 56.4744 0 1 1 0.000832287 0.0120546 -0.0303999 18.0549 -3.39654 -7.65991 
5272 330 3 1.008 0.03 23.1906 6.17081 0.627606 72.373 -43.0115 -48.5547 1 -1 -1 -0.017087 0.00677898 0.00394396 -9.38014 5.3432 -10.3477 
375 24 3 1.008 0.03 0.569517 14.4886 7.11972 148.117 -34.6937 7.11972 3 -1 0 0.00347623 0.0160835 -0.0223042 6.6541 -3.82995 -22.9991 
4410 276 3 1.008 0.03 5.9521 13.2203 0.739485 5.9521 62.4027 99.1042 0 1 2 -0.021272 -0.00911963 0.0142343 2.13749 2.59128 -3.62195 
1468 92 3 1.008 0.03 4.66231 8.85684 0.70916 -44.52 -40.3255 -48.4732 -1 -1 -1 0.0191746 -0.00143952 0.0050864 35.3067 -16.8665 -31.0496 
2889 181 3 1.008 0.03 6.22174 16.1362 7.27063 6.22174 16.1362 -41.9117 0 0 -1 -0.00981303 -0.00940834 -0.0010333 10.7877 -2.42686 -1.37459 
6568 411 3 1.008 0.03 1.0433 16.3713 3.02295 50.2256 16.3713 52.2053 1 0 1 -0.0070262 0.0227973 0.00295365 -4.84747 21.9353 4.79717 
360 23 3 1.008 0.03 5.68886 11.9909 2.80237 5.68886 11.9909 -46.38 0 0 -1 -0.00749073 0.0334819 0.0201421 12.1591 -8.17468 -1.34401 
4493 281 3 1.008 0.03 3.62678 9.40835 6.27533 101.991 -39.774 153.822 2 -1 3 -0.00626234 -0.00712738 0.0186656 28.4505 -2.52747 8.74844 
4492 281 3 1.008 0.03 2.46232 10.4142 5.58528 100.827 -38.7682 153.132 2 -1 3 -0.0160138 0.0218977 0.0191797 5.76418 -1.0465 -3.67513 
4491 281 3 1.008 0.03 3.50044 9.59847 4.39247 101.865 -39.5839 151.94 2 -1 3 0.00972616 -0.00231131 -0.00887899 -8.82175 -12.1678 34.2021 
4485 281 2 12.01 0.11 3.0127 9.48215 5.41972 101.377 -39.7002 152.967 2 -1 3 -0.00127952 -0.00233901 0.004306 -16.3314 15.1227 -33.2679 
10119 636 6 16 -0.53 7.89752 10.0837 5.78321 7.89752 10.0837 54.9656 0 0 1 0.000602597 -8.51615e-05 0.00250587 -11.7161 7.16642 -14.4664 
364 23 3 1.008 0.03 7.16877 14.029 4.90916 7.16877 14.029 -44.2732 0 0 -1 0.00576044 -0.0205054 -0.0073666 0.78402 4.76503 22.4663 
9848 618 5 32.06 1.02 2.03343 12.982 1.11166 51.2158 62.1643 1.11166 1 1 0 0.00284727 0.000993813 0.00192363 -29.5244 -3.4466 15.6904 
9850 618 6 16 -0.53 2.36738 14.2879 1.59998 51.5497 63.4703 1.59998 1 1 0 0.00181822 -0.00169906 -0.00195427 12.9902 10.9235 10.6173 
357 23 2 12.01 0.11 6.49597 14.3077 4.12776 6.49597 14.3077 -45.0546 0 0 -1 -0.00606986 -0.00335965 0.00274977 6.85362 -11.601 -26.8778 
365 23 3 1.008 0.03 6.5527 15.3755 3.92088 6.5527 15.3755 -45.2615 0 0 -1 -0.00975695 -0.00540347 0.00471014 6.59787 0.162577 -1.11746 
353 23 1 16 -0.4 6.98687 13.4997 3.05404 6.98687 13.4997 -46.1283 0 0 -1 0.000642896 -0.00452235 0.00438551 1.85926 11.0196 2.23353 
355 23 2 12.01 0.14 6.7136 12.1127 3.19267 6.7136 12.1127 -45.9897 0 0 -1 0.00365644 -0.00151007 0.00304388 -48.9534 14.5892 4.32065 
359 23 3 1.008 0.03 6.6545 11.7536 4.20534 6.6545 11.7536 -44.977 0 0 -1 -0.00678278 -0.00829826 -0.0209448 -1.26754 9.24983 12.7057 
356 23 2 12.01 0.14 7.73396 11.2529 2.5799 7.73396 11.2529 -46.6024 0 0 -1 0.00223796 -0.00718471 -0.00451809 74.2301 -14.3624 2.42231 
363 23 3 1.008 0.03 5.46154 14.097 4.3421 5.46154 14.097 -44.8402 0 0 -1 0.00477886 0.00791288 -0.00379603 -7.14519 -5.75498 6.47319 
6573 411 3 1.008 0.03 1.9372 16.576 5.05265 51.1196 16.576 54.235 1 0 1 0.0139748 0.00234098 -0.00454828 6.05784 -23.8839 -4.81576 
2890 181 3 1.008 0.03 7.72641 15.1975 7.42408 7.72641 15.1975 -41.7583 0 0 -1 -0.00621681 0.0174677 0.0264164 1.84168 -15.7033 -9.80296 
9851 618 7 12.01 0.35 2.83797 11.7745 2.24539 52.0203 60.9569 2.24539 1 1 0 0.00627775 -0.00147242 0.00327648 -8.08965 7.20474 13.5665 
362 23 3 1.008 0.03 7.69096 10.2091 2.88154 7.69096 10.2091 -46.3008 0 0 -1 -0.0137915 0.0206829 -0.00112043 -12.1887 -2.2849 -1.17716 
354 23 1 16 -0.4 7.85559 11.3681 1.18633 7.85559 11.3681 -47.996 0 0 -1 0.00323218 0.00198216 0.00309013 -0.895157 -3.31767 -27.622 
4407 276 3 1.008 0.03 6.48774 15.421 1.16407 6.48774 64.6034 99.5288 0 1 2 0.000185804 -0.0171685 -0.0367695 -1.68316 -1.20103 2.73364 
9853 618 8 19 -0.16 1.92068 10.9046 2.6433 51.103 60.0869 2.6433 1 1 0 -0.00110674 0.000128176 0.00289463 3.999 -1.18657 8.65603 
9852 618 8 19 -0.16 3.7578 11.054 1.63713 52.9401 60.2364 1.63713 1 1 0 -0.00249728 -0.00377246 0.000272002 7.94852 -0.532548 -0.583251 
2895 181 3 1.008 0.03 5.26787 13.7435 6.97289 5.26787 13.7435 -42.2095 0 0 -1 0.0172859 -0.0258803 0.000933268 3.70146 -1.31272 -18.5697 
9847 618 4 14.01 -0.66 0.489351 12.595 1.29832 49.6717 61.7774 1.29832 1 1 0 -0.00667886 -0.00213725 -0.00392339 72.5123 -18.0499 -11.0474 
9854 618 8 19 -0.16 3.40068 12.3128 3.34895 52.583 61.4952 3.34895 1 1 0 -0.00627121 0.00228032 -0.00749395 -12.36 -6.09736 -18.5002 
379 24 3 1.008 0.03 1.08795 12.2343 6.5021 148.635 -36.948 6.5021 3 -1 0 0.0187789 -0.00684932 -0.0140414 15.4399 -11.7385 46.7129 
3432 215 3 1.008 0.03 12.1566 16.5483 0.984626 61.3389 16.5483 50.167 1 0 1 -0.00892982 0.00599344 0.00909981 -4.84335 -2.53535 2.92834 
4688 293 3 1.008 0.03 12.2306 9.64433 2.50576 -36.9517 58.8267 51.6881 -1 1 1 -0.0134979 -0.0091577 0.00373301 5.64019 16.4438 31.8872 
4678 293 2 12.01 0.11 12.4881 8.78958 1.95723 -36.6943 57.9719 51.1396 -1 1 1 0.00405382 -0.00248261 0.00402496 -22.3107 2.83107 -41.2675 
10123 636 8 19 -0.16 10.4222 10.0083 4.28425 10.4222 10.0083 53.4666 0 0 1 0.00289196 0.00136135 0.00262716 9.37871 10.7073 9.36234 
10118 636 5 32.06 1.02 8.83054 9.04004 6.07245 8.83054 9.04004 55.2548 0 0 1 -0.00267827 -0.000401774 0.00268336 8.11766 38.7418 -6.94649 
358 23 2 12.01 0.11 8.82023 10.5006 0.537751 8.82023 10.5006 -48.6446 0 0 -1 0.000661617 -0.000281746 0.00273083 23.1499 35.9616 26.5464 
8103 507 3 1.008 0.03 10.0638 16.2851 2.40571 59.2462 16.2851 100.77 1 0 2 -0.0284617 -0.00201914 0.0187724 -5.6909 -28.0651 6.96433 
10124 636 8 19 -0.16 11.4928 8.9624 5.78728 11.4928 8.9624 54.9696 0 0 1 -0.00300807 0.00472023 -0.000467156 -8.82466 5.89012 3.55949 
361 23 3 1.008 0.03 8.72076 11.5604 3.01454 8.72076 11.5604 -46.1678 0 0 -1 0.00165277 0.00257559 0.00377114 -18.2432 -3.308 -8.94802 
10121 636 7 12.01 0.35 10.4595 9.78793 5.59922 10.4595 9.78793 54.7816 0 0 1 -4.20842e-05 0.00408404 0.00959858 -12.5944 -23.1739 -19.7618 
8099 507 2 12.01 0.14 10.0805 15.2881 2.93993 59.2629 15.2881 101.305 1 0 2 0.00425424 0.00125387 -0.000624007 -19.8614 41.8646 -1.45384 
8105 507 3 1.008 0.03 11.084 16.3787 4.64254 60.2663 16.3787 103.007 1 0 2 0.014841 -0.00224511 -0.0128844 -44.4167 -27.3191 -11.175 
8100 507 2 12.01 0.14 10.2175 15.6319 4.43326 59.3999 15.6319 102.798 1 0 2 0.00455918 0.000302816 -0.00210853 82.1409 -31.4789 33.9481 
8111 507 3 1.008 0.03 11.3394 13.5029 6.8607 60.5218 13.5029 105.225 1 0 2 0.000308911 -0.0155518 0.0217894 -6.78444 20.8298 -8.68949 
8102 507 2 12.01 0.11 10.9569 14.4976 6.50224 60.1392 14.4976 104.867 1 0 2 0.00412847 -0.000198185 -0.00160084 -3.32415 -6.7191 21.4566 
8098 507 1 16 -0.4 10.6552 14.3926 5.11082 59.8375 14.3926 103.476 1 0 2 0.00227741 0.00415984 0.00406796 -10.8744 21.3708 -13.6439 
10122 636 8 19 -0.16 10.7223 10.9225 6.22666 10.7223 10.9225 55.409 0 0 1 -0.00249856 -0.00129458 0.00256819 0.338939 3.46611 -4.23039 
4953 310 3 1.008 0.03 14.4611 14.151 1.88152 63.6435 14.151 1.88152 1 0 0 -0.020911 -0.00577837 -0.00800206 -10.9353 9.27826 11.2695 
4948 310 2 12.01 0.14 14.3679 14.8061 2.77806 63.5503 14.8061 2.77806 1 0 0 -0.000933146 -0.000741757 0.00289532 1.28237 -28.176 3.92296 
4947 310 2 12.01 0.14 13.6673 14.0815 3.97385 62.8497 14.0815 3.97385 1 0 0 -0.0028948 -0.00071099 -0.00656106 -1.99869 -2.64251 -31.2948 
4951 310 3 1.008 0.03 12.8446 13.4355 3.544 62.027 13.4355 3.544 1 0 0 -0.00876284 -0.0317585 0.00220022 17.2643 17.7006 21.5567 
4946 310 1 16 -0.4 15.7097 15.1824 3.08481 64.8921 15.1824 3.08481 1 0 0 0.000222275 -0.000764199 -0.00168618 15.1346 -7.3299 -0.524356 
4952 310 3 1.008 0.03 13.342 14.7987 4.7605 62.5244 14.7987 4.7605 1 0 0 -0.0186189 0.00361441 -0.0402735 -0.401707 -10.9568 -11.1764 
4945 310 1 16 -0.4 14.6536 13.2065 4.43952 63.8359 13.2065 4.43952 1 0 0 -0.00665873 -0.00180963 0.00402005 20.4735 -14.5653 25.0978 
4956 310 3 1.008 0.03 13.2973 11.7876 5.22648 62.4796 11.7876 5.22648 1 0 0 0.00497254 0.000729485 0.0202847 7.64496 7.63775 1.65476 
4949 310 2 12.01 0.11 14.1564 12.4122 5.54051 63.3388 12.4122 5.54051 1 0 0 -0.003711 -0.000760084 -0.0034275 -39.2537 19.7379 -8.24066 
4955 310 3 1.008 0.03 13.8154 13.0283 6.40058 62.9978 13.0283 6.40058 1 0 0 0.0103555 -0.0178471 -0.0118383 5.04158 -4.41238 -12.6518 
4957 310 3 1.008 0.03 14.858 11.7373 5.92359 64.0403 11.7373 5.92359 1 0 0 0.0154523 -0.0184349 -0.00192131 21.2493 -17.5082 7.27933 
9826 616 6 16 -0.53 16.3387 15.0873 5.94484 65.521 15.0873 5.94484 1 0 0 0.00542037 -0.00540404 -0.00149715 -1.09368 -42.311 -29.5843 
7806 488 3 1.008 0.03 16.0697 11.3242 1.01088 65.2521 11.3242 1.01088 1 0 0 -0.0107435 -0.0239678 0.0174459 -1.64995 -5.64826 -5.41655 
8112 507 3 1.008 0.03 11.761 15.2436 6.6915 60.9434 15.2436 105.056 1 0 2 -0.00632389 -0.00924702 -0.0447848 -12.9237 -8.33417 -2.21448 
4954 310 3 1.008 0.03 13.7422 15.636 2.5797 62.9246 15.636 2.5797 1 0 0 0.0123586 -0.0111723 -0.00269478 -7.94824 19.2384 -13.0875 
8110 507 3 1.008 0.03 10.0548 14.7136 7.14857 59.2371 14.7136 105.513 1 0 2 -0.000459738 0.0123701 -0.00216457 21.1206 0.330833 -20.9762 
7798 488 2 12.01 0.11 15.8689 11.4521 2.06629 65.0512 11.4521 2.06629 1 0 0 0.00400046 0.00140368 -0.00515971 40.4069 32.3915 -2.31186 
7808 488 3 1.008 0.03 14.8483 11.5289 2.21938 64.0307 11.5289 2.21938 1 0 0 0.0130059 -0.0151904 -0.0234596 -37.037 10.3677 3.41163 
9825 616 5 32.06 1.02 16.0024 16.224 6.74747 65.1847 16.224 6.74747 1 0 0 -0.0028961 -0.00264406 0.000157198 -7.64284 16.4549 23.9652 
10454 665 9 24.305 2 16.4993 13.7202 4.23927 65.6816 13.7202 4.23927 1 0 0 -0.00411797 -0.000510492 0.00129346 5.1085 4.54575 5.97388 
4959 310 3 1.008 0.03 16.6236 15.591 1.09587 65.8059 15.591 1.09587 1 0 0 -0.0044475 -0.0171508 -0.010266 -18.2172 -7.4353 7.56174 
4950 310 2 12.01 0.11 16.2599 16.0369 2.03888 65.4422 16.0369 2.03888 1 0 0 -0.00109176 -0.00120979 -0.00535854 22.3862 13.872 10.5481 
8106 507 3 1.008 0.03 9.32698 15.8696 4.94593 58.5093 15.8696 103.311 1 0 2 0.0399624 0.0171043 0.0178857 -22.8351 18.369 2.22072 
8104 507 3 1.008 0.03 9.15042 14.728 2.73968 58.3328 14.728 101.104 1 0 2 -0.00480651 0.0244164 0.00658209 7.45511 6.13258 2.88022 
8097 507 1 16 -0.4 11.2065 14.5779 2.53067 60.3889 14.5779 100.895 1 0 2 0.00280778 0.00292986 0.000946767 -6.18224 -1.26883 -7.10104 
7807 488 3 1.008 0.03 16.1579 10.6268 2.6329 65.3402 10.6268 2.6329 1 0 0 -0.0182619 0.00614376 -0.0171511 8.5526 -33.2446 9.58604 
10153 638 8 19 -0.16 16.4772 9.77376 6.94862 16.4772 9.77376 56.131 0 0 1 -0.000649245 -7.99284e-05 -0.000820302 12.5952 20.7367 20.614 
7794 488 1 16 -0.4 16.6516 12.5581 2.57033 65.8339 12.5581 2.57033 1 0 0 0.00532734 0.00145548 -0.00306153 -14.8443 3.77363 19.0871 
8101 507 2 12.01 0.11 10.9838 13.9328 1.30066 60.1661 13.9328 99.6654 1 0 2 0.00199032 0.00433325 -0.000225464 -11.9333 -2.33616 -32.4384 
8109 507 3 1.008 0.03 10.1396 13.1756 1.22593 59.3219 13.1756 99.5906 1 0 2 0.00469167 -0.00234283 0.00856455 25.0815 17.6693 10.4972 
8108 507 3 1.008 0.03 11.9517 13.5018 1.11577 61.1341 13.5018 99.4805 1 0 2 -0.00324948 0.0148315 0.0188829 2.20662 -16.7916 -4.92856 
4686 293 3 1.008 0.03 11.951 9.19995 1.05442 -37.2314 58.3823 50.2368 -1 1 1 -0.030514 -0.0229976 -0.00884249 16.7633 -27.7072 9.35431 
4674 293 1 16 -0.4 13.8918 8.64035 1.75061 -35.2906 57.8227 50.933 -1 1 1 0.000409115 0.000754026 0.0092613 13.0155 -32.2427 -23.527 