ITEM: TIMESTEP
4100000
ITEM: NUMBER OF ATOMS
10479
ITEM: BOX BOUNDS pp pp pp
4.0882558190751794e-01 4.9591174418091420e+01
4.0882558190751794e-01 4.9591174418091420e+01
4.0882558190751794e-01 4.9591174418091420e+01
ITEM: ATOMS id mol type mass q x y z xu yu zu ix iy iz vx vy vz fx fy fz 
3122 196 1 16 -0.4 4.90895 3.65804 4.28225 54.0913 -45.5243 53.4646 1 -1 1 -0.00108205 -0.0120663 -0.0027681 5.77199 -9.70879 9.5141 
3129 196 3 1.008 0.03 3.22114 4.60735 3.60852 52.4035 -44.575 52.7909 1 -1 1 0.00985886 -0.00758346 -0.0104014 -14.1261 22.0109 1.25299 
3124 196 2 12.01 0.14 3.90703 3.86717 3.3077 53.0894 -45.3152 52.4901 1 -1 1 0.00654417 -0.00325361 0.000741762 30.3648 -32.6478 -28.5428 
3135 196 3 1.008 0.03 6.53697 4.68721 3.62243 55.7193 -44.4951 52.8048 1 -1 1 -0.0115054 -0.0136189 -2.24276e-05 1.69561 -2.86693 7.6431 
3126 196 2 12.01 0.11 5.84956 4.68323 4.47588 55.0319 -44.4991 53.6582 1 -1 1 0.00248868 -0.00591122 0.000163219 -38.4001 49.8897 -65.8227 
3123 196 2 12.01 0.14 4.3365 3.85176 1.79105 53.5189 -45.3306 50.9734 1 -1 1 0.00648744 0.000358307 0.000270223 4.20118 48.418 14.3451 
3136 196 3 1.008 0.03 5.31445 5.681 4.38471 54.4968 -43.5013 53.5671 1 -1 1 0.00958046 0.0234884 -0.00275897 15.7802 -25.0891 10.6346 
3134 196 3 1.008 0.03 6.38918 4.64935 5.34851 55.5715 -44.533 54.5309 1 -1 1 -0.0019498 0.00754062 -0.00919349 19.4622 -6.06234 37.6417 
3127 196 3 1.008 0.03 4.63907 2.92996 1.36424 53.8214 -46.2524 50.5466 1 -1 1 -0.0178418 0.000927703 0.00192637 -4.65969 -22.631 -0.896807 
3130 196 3 1.008 0.03 3.41532 2.93134 3.37741 52.5977 -46.251 52.5598 1 -1 1 -0.0229692 0.000211096 -0.00230352 -21.054 -12.2619 4.71789 
3128 196 3 1.008 0.03 5.3017 4.36426 1.6938 54.484 -44.8181 50.8761 1 -1 1 -0.00404934 0.00864503 -0.0321313 -11.4813 7.71314 1.94151 
5003 313 3 1.008 0.03 6.08487 1.5423 4.43699 -92.2798 1.5423 4.43699 -2 0 0 0.00315272 0.00921818 0.0164214 5.70893 -7.54711 -6.62753 
8463 529 3 1.008 0.03 3.80308 0.597342 5.49566 52.9854 49.7797 103.86 1 1 2 0.0216196 0.00338065 -0.0155532 9.18728 22.0642 6.58166 
3121 196 1 16 -0.4 3.29228 4.53146 1.05617 52.4746 -44.6509 50.2385 1 -1 1 -0.00671935 -0.000696355 0.000118701 19.055 -5.74858 2.26485 
8246 516 2 12.01 0.11 7.74335 6.45589 1.58168 56.9257 6.45589 -96.783 1 0 -2 0.00160431 0.000787383 -0.00293555 41.1877 -39.2562 -10.9519 
8256 516 3 1.008 0.03 6.70922 6.10088 1.58671 55.8916 6.10088 -96.778 1 0 -2 -0.0248032 -0.0198915 -0.00210537 2.81754 3.19864 -10.9873 
8242 516 1 16 -0.4 7.80375 7.61575 2.34936 56.9861 7.61575 -96.0153 1 0 -2 0.00834997 0.000777736 0.0011763 -11.3663 19.5623 -3.29222 
8726 546 2 12.01 0.11 1.14392 7.30356 4.37171 50.3263 -91.0611 53.5541 1 -2 1 0.00220433 -0.00703293 0.00787988 -1.10939 -22.1061 -8.24602 
4997 313 2 12.01 0.11 7.17644 1.41658 4.4391 -91.1883 1.41658 4.4391 -2 0 0 0.00728062 -0.00723485 0.00498887 19.9004 40.0188 -21.6335 
5004 313 3 1.008 0.03 7.51846 2.2792 5.04006 -90.8462 2.2792 5.04006 -2 0 0 0.0151517 -0.00374745 0.0132881 1.00663 -4.49658 -14.6119 
8734 546 3 1.008 0.03 1.59184 8.00481 5.11967 50.7742 -90.3599 54.302 1 -2 1 0.0187205 -0.00169646 -0.0171222 -9.67359 -5.54948 -18.3355 
8724 546 2 12.01 0.14 1.68912 7.99808 2.17273 50.8715 -90.3666 51.3551 1 -2 1 0.00634558 0.000941859 -0.011236 19.165 14.6787 13.1916 
1177 74 3 1.008 0.03 0.789009 1.35112 4.06898 0.789009 50.5335 102.434 0 1 2 -0.00313133 0.0107417 0.0194569 3.45141 -2.44543 18.6362 
8252 516 3 1.008 0.03 7.59453 8.00532 4.91633 56.7769 8.00532 -93.4484 1 0 -2 -0.00960335 -0.00597892 -0.00825774 -2.17321 -23.8095 1.96144 
5005 313 3 1.008 0.03 7.6648 1.46058 3.39975 -90.6999 1.46058 3.39975 -2 0 0 0.0129819 -0.0058046 -0.00697776 -22.0976 -1.07048 33.7636 
1176 74 3 1.008 0.03 1.25679 2.64095 2.23272 1.25679 51.8233 100.597 0 1 2 -0.0298184 0.0213242 0.000429122 18.9355 3.40973 -13.8791 
8729 546 3 1.008 0.03 2.17323 7.06422 2.00045 51.3556 -91.3005 51.1828 1 -2 1 -0.0159402 0.00700026 -0.00795441 11.6428 -12.6067 -5.55921 
8255 516 3 1.008 0.03 8.30947 5.68707 2.188 57.4918 5.68707 -96.1767 1 0 -2 -0.00558404 -0.0179873 -0.00108122 -12.8666 15.3064 -19.435 
8474 530 3 1.008 0.03 8.6054 0.55817 0.921128 106.97 246.47 0.921128 2 5 0 0.0111832 -0.012512 -0.00212612 0.666715 -10.1393 6.62031 
6476 405 3 1.008 0.03 4.33404 8.35688 0.772878 151.881 -139.19 49.9552 3 -3 1 0.0144207 -0.00140832 -0.0171555 -0.903009 1.03 -12.1375 
8723 546 2 12.01 0.14 1.11332 8.53293 0.897014 50.2957 -89.8318 50.0794 1 -2 1 -0.00031781 -0.00163724 -0.00306103 -30.0849 -1.1377 -21.7532 
8722 546 1 16 -0.4 0.672625 7.7998 3.0994 49.855 -90.5649 52.2817 1 -2 1 -0.00942366 0.00111237 -0.00250283 -8.8678 4.51448 32.2921 
8155 510 3 1.008 0.03 1.60686 3.27015 5.13332 1.60686 52.4525 5.13332 0 1 0 -0.0219034 -0.00998639 0.0145253 -6.63882 11.4663 5.48752 
8145 510 1 16 -0.4 1.31759 2.5744 6.94201 1.31759 51.7568 6.94201 0 1 0 0.00165766 -0.00326241 -0.00493053 -2.15199 4.66399 22.2836 
2396 150 3 1.008 0.03 3.01906 1.67413 0.836999 -95.3456 1.67413 50.0193 -2 0 1 -0.0070449 0.0383353 0.00411829 17.0575 -31.2551 -10.9181 
8736 546 3 1.008 0.03 1.85903 6.48222 4.17282 51.0414 -91.8825 53.3552 1 -2 1 0.0173909 -0.00393335 -0.0172738 -2.80236 11.5918 6.07703 
8254 516 3 1.008 0.03 8.23875 6.49496 0.532506 57.4211 6.49496 -97.8322 1 0 -2 -0.0179399 -0.00242823 0.00586161 -25.236 3.21847 40.9452 
8157 510 3 1.008 0.03 2.9358 3.59091 6.06357 2.9358 52.7733 6.06357 0 1 0 0.00379449 -0.00154611 0.00462964 -2.38722 1.40744 14.0838 
5436 340 3 1.008 0.03 6.22259 2.5626 6.92965 -42.9598 2.5626 -42.2527 -1 0 -1 0.016717 0.0191796 -0.00590569 -1.82143 -16.3146 3.33086 
8149 510 2 12.01 0.11 1.84455 3.60652 6.15264 1.84455 52.7889 6.15264 0 1 0 -0.000856714 -0.00194712 -0.00327857 16.5025 -2.04196 -33.0433 
1179 74 3 1.008 0.03 0.904805 5.11329 2.42949 0.904805 54.2956 100.794 0 1 2 -0.000894408 0.01031 0.0165787 -26.1817 -16.0846 -10.504 
8156 510 3 1.008 0.03 1.49954 4.64186 6.28579 1.49954 53.8242 6.28579 0 1 0 -0.00088907 -0.0134084 -0.0160093 -3.8469 -8.67277 5.91284 
5754 360 3 1.008 0.03 7.97884 4.84738 7.03354 -90.3859 4.84738 -140.514 -2 0 -3 -0.00400613 -0.00864323 0.00880779 11.9736 14.8658 27.0472 
2389 150 2 12.01 0.11 3.21981 0.613988 0.477134 -95.1449 0.613988 49.6595 -2 0 1 0.000674165 0.00110609 0.000302351 -19.4822 47.8593 -4.54754 
8244 516 2 12.01 0.14 9.09594 8.12088 2.59778 58.2783 8.12088 -95.7669 1 0 -2 -0.00432705 0.00345121 0.0047875 22.4848 -2.81093 11.7939 
6461 404 3 1.008 0.03 13.4317 4.87235 0.578999 13.4317 -44.31 0.578999 0 -1 0 0.0109689 -0.0305624 -0.0318952 -1.90459 5.30931 -10.1187 
5759 360 3 1.008 0.03 9.33361 6.16386 5.46663 -89.0311 6.16386 -142.08 -2 0 -3 0.00452795 0.0105798 0.0212666 5.5271 -2.03731 8.72554 
5758 360 3 1.008 0.03 10.652 5.87204 6.58406 -87.7127 5.87204 -140.963 -2 0 -3 -0.00276564 -0.00502808 -0.00261537 28.4609 -37.2414 10.3181 
8266 517 3 1.008 0.03 15.0219 3.94696 6.72458 113.387 3.94696 6.72458 2 0 0 -0.0120731 -0.0170576 0.0378624 -22.9637 8.93282 -27.5322 
8260 517 2 12.01 0.14 14.1366 4.56611 6.37272 112.501 4.56611 6.37272 2 0 0 0.000422981 0.00537242 0.0063044 6.24104 -32.7685 6.48703 
8264 517 3 1.008 0.03 12.3192 3.57351 6.02059 110.684 3.57351 6.02059 2 0 0 0.0355635 0.00603904 -0.00369777 -19.531 -16.9109 9.0587 
8261 517 2 12.01 0.11 12.7398 2.20108 3.89311 111.104 2.20108 3.89311 2 0 0 -0.00316799 -0.00382782 0.00436941 15.4146 8.44724 2.17292 
8257 517 1 16 -0.4 13.7243 2.94421 4.57633 112.089 2.94421 4.57633 2 0 0 0.00231367 0.00602116 0.000716028 -17.8547 21.8607 19.4049 
8259 517 2 12.01 0.14 13.0852 3.95299 5.40341 111.45 3.95299 5.40341 2 0 0 -0.000128842 0.00413072 -0.0050996 54.5413 -24.0712 -2.35239 
8263 517 3 1.008 0.03 12.6289 4.65947 4.75889 110.994 4.65947 4.75889 2 0 0 0.00951803 0.00798078 0.00786874 -8.32053 19.4763 -8.60981 
8250 516 3 1.008 0.03 9.64437 7.4649 3.29597 58.8267 7.4649 -95.0687 1 0 -2 -0.00725811 0.000682514 -0.0241098 -5.58831 4.85024 -5.47435 
8258 517 1 16 -0.4 14.5049 5.78753 5.82482 112.87 5.78753 5.82482 2 0 0 0.00539069 0.000734177 0.00418056 17.2738 13.1297 7.05413 
8269 517 3 1.008 0.03 12.0186 2.83834 3.36619 110.383 2.83834 3.36619 2 0 0 0.0211329 -0.0170663 -0.0278442 1.88924 -5.78273 -0.893032 
8262 517 2 12.01 0.11 15.4798 6.45906 6.62425 113.845 6.45906 6.62425 2 0 0 -0.012135 -0.00321715 -0.00615576 -31.6364 17.6755 -33.3305 
8270 517 3 1.008 0.03 16.1851 5.79884 7.1044 114.55 5.79884 7.1044 2 0 0 -0.0119978 -0.00859097 0.00958713 6.41854 1.16376 11.2564 
8271 517 3 1.008 0.03 15.9794 7.05371 5.86748 114.344 7.05371 5.86748 2 0 0 -0.00496849 0.000696474 0.01316 11.7964 0.994149 2.80509 
8268 517 3 1.008 0.03 12.2699 1.5185 4.57218 110.635 1.5185 4.57218 2 0 0 -0.0252038 0.00801987 -0.00564051 -11.8522 -5.18615 7.34866 
2491 156 3 1.008 0.03 15.8423 2.24996 2.17115 -33.3401 2.24996 100.536 -1 0 2 0.00668979 -0.025621 -0.0294321 -1.7008 4.58891 -2.51666 
7998 500 3 1.008 0.03 16.3157 6.67431 2.60904 114.68 55.8567 51.7914 2 1 1 -0.0151741 0.0184583 0.0397686 -0.867837 -11.8506 -9.34791 
2485 156 2 12.01 0.11 15.479 2.43022 1.15498 -33.7034 2.43022 99.5197 -1 0 2 -0.00423084 -0.00384405 -0.00040412 -2.13516 8.07985 8.29626 
5439 340 3 1.008 0.03 9.6066 0.494756 7.01597 -39.5757 0.494756 -42.1664 -1 0 -1 -0.0159554 0.000376983 0.00342021 14.7325 4.08623 14.7968 
5750 360 2 12.01 0.11 9.87413 6.4985 6.36923 -88.4906 6.4985 -141.178 -2 0 -3 -0.00155102 -0.000621429 0.0060375 -26.5905 22.1697 -29.4808 
6453 404 2 12.01 0.11 12.4398 5.21272 0.873132 12.4398 -43.9696 0.873132 0 -1 0 -0.00112705 -4.97299e-05 -0.00490599 -4.93389 0.914483 0.27213 
6459 404 3 1.008 0.03 12.5634 5.82382 1.74168 12.5634 -43.3585 1.74168 0 -1 0 -0.0195447 -0.000455882 0.00643405 1.80026 4.43685 15.0261 
6460 404 3 1.008 0.03 11.8622 4.33638 1.1465 11.8622 -44.846 1.1465 0 -1 0 0.0218173 0.0135145 -0.0112321 -0.240866 -3.8182 2.70863 
5760 360 3 1.008 0.03 10.4326 7.39957 6.04678 -87.9321 7.39957 -141.5 -2 0 -3 0.00185211 -0.00786471 -0.00366744 -21.6812 -4.19851 13.122 
8267 517 3 1.008 0.03 13.3211 1.60165 3.22513 111.686 1.60165 3.22513 2 0 0 -0.0150373 -0.020953 -0.0176386 -1.19292 -8.33223 -15.7548 
6455 404 3 1.008 0.03 12.0288 7.99342 0.496279 12.0288 -41.1889 0.496279 0 -1 0 -0.00833543 -0.0265697 -0.0103438 2.7993 -17.5684 -9.99192 
2481 156 1 16 -0.4 14.5398 1.47117 0.847154 -34.6426 1.47117 99.2119 -1 0 2 0.000684435 0.0085202 -0.00792107 -15.2303 -32.1267 -18.1508 
7694 481 3 1.008 0.03 12.4604 7.69661 5.48942 12.4604 155.244 5.48942 0 3 0 -0.036837 0.00288931 0.0133018 15.9862 14.7962 -24.6269 
7696 481 3 1.008 0.03 13.8914 8.17282 4.4628 13.8914 155.72 4.4628 0 3 0 0.00204937 0.00106553 0.0214148 -0.0242828 -2.63291 3.00243 
7686 481 2 12.01 0.11 12.8293 8.34869 4.63646 12.8293 155.896 4.63646 0 3 0 -0.000426109 -0.00140455 -0.00043238 -9.92233 -3.92945 17.0967 
7695 481 3 1.008 0.03 12.3281 8.06002 3.69962 12.3281 155.607 3.69962 0 3 0 0.00617145 -0.00265777 -0.00142737 -0.862017 2.85309 8.30343 
7993 500 3 1.008 0.03 14.7063 8.05022 1.14032 113.071 57.2326 50.3227 2 1 1 -0.0195924 0.00466164 -0.015144 -6.17161 -3.57669 -4.1041 
8249 516 3 1.008 0.03 9.70388 8.14686 1.67899 58.8862 8.14686 -96.6857 1 0 -2 0.0357502 0.0196105 0.00202464 -7.86612 0.0638109 3.62793 
2492 156 3 1.008 0.03 16.2927 2.40028 0.486033 -32.8897 2.40028 98.8507 -1 0 2 -0.0175729 -0.0310602 0.0095094 20.0438 -3.03922 -14.8317 
8265 517 3 1.008 0.03 13.6339 4.62927 7.31568 111.999 4.62927 7.31568 2 0 0 -0.0209934 -0.00260084 -0.0542361 -6.89937 16.5473 10.4091 
5440 340 3 1.008 0.03 10.7142 1.85911 7.11052 -38.4681 1.85911 -42.0718 -1 0 -1 0.00947829 -0.00779126 0.0294836 4.4328 -6.8061 2.90713 
2493 156 3 1.008 0.03 15.0321 3.39893 1.06989 -34.1502 3.39893 99.4346 -1 0 2 -0.0124305 -0.00328639 -0.00768694 -2.83109 12.3011 4.01229 
8272 517 3 1.008 0.03 14.96 7.22591 7.21971 113.325 7.22591 7.21971 2 0 0 0.0120718 -0.00222438 -0.00886657 8.99993 -15.6731 10.8787 
8438 528 2 12.01 0.11 21.5993 1.7928 3.15052 -125.948 198.522 101.515 -3 4 2 -0.00374671 0.00197599 -0.00781651 -9.60768 18.8168 -19.3798 
4278 268 2 12.01 0.11 19.5925 4.78132 1.28439 167.14 -44.401 -47.898 3 -1 -1 -0.00202878 0.0045646 0.000980633 56.4786 -9.70556 9.41752 
1503 94 3 1.008 0.03 24.2166 7.53804 5.15511 122.581 105.903 54.3375 2 2 1 0.0368122 -0.00628309 0.0155088 -0.706465 11.4276 1.86379 
5207 326 3 1.008 0.03 21.2651 0.846984 6.56973 21.2651 99.2117 -42.6126 0 2 -1 0.0109982 -0.0101296 -0.0184614 -5.89585 -0.0294024 14.8354 
7990 500 2 12.01 0.11 17.023 7.48156 2.50695 115.388 56.6639 51.6893 2 1 1 0.00663083 0.00592359 0.00371639 -6.13037 6.20388 -3.40066 
8000 500 3 1.008 0.03 17.4473 7.56663 3.49398 115.812 56.749 52.6763 2 1 1 0.0106668 -0.00873727 -0.00972964 6.74653 -0.981504 3.02593 
1504 94 3 1.008 0.03 23.1994 6.26868 4.31204 121.564 104.633 53.4944 2 2 1 -0.000777748 -0.0118006 0.0036983 7.62388 5.69801 -0.578503 
8448 528 3 1.008 0.03 22.5827 1.87242 2.72816 -124.964 198.602 101.093 -3 4 2 -0.0107338 0.0302543 -0.0239599 7.09409 0.0282649 -12.1813 
1502 94 3 1.008 0.03 24.2642 5.81362 5.59229 122.629 104.178 54.7746 2 2 1 0.0122408 -0.0140769 0.00574987 -14.6756 12.9844 10.124 
1496 94 3 1.008 0.03 24.7636 6.56427 0.840308 123.128 104.929 50.0227 2 2 1 -0.011109 -0.0323354 -0.0130158 0.407248 2.92606 1.31017 
1494 94 2 12.01 0.11 24.1591 6.53476 4.77687 122.524 104.899 53.9592 2 2 1 0.00298873 -0.00554053 -0.00106385 40.3738 -58.2238 3.88767 
8445 528 3 1.008 0.03 16.815 2.98792 4.60321 -130.732 199.717 102.968 -3 4 2 0.0109446 0.00404494 0.00425699 27.2999 12.5041 -8.3258 
1500 94 3 1.008 0.03 21.863 6.60179 2.54538 120.228 104.966 51.7277 2 2 1 -0.00659148 0.000253239 0.00195674 -9.34714 15.1498 -7.55648 
7278 455 3 1.008 0.03 18.2424 8.14504 6.59281 67.4247 8.14504 55.7752 1 0 1 -0.0122057 -0.000598749 0.020495 29.8113 4.76225 -9.50171 
8444 528 3 1.008 0.03 17.4777 3.80523 3.16814 -130.069 200.535 101.533 -3 4 2 -0.0333995 -0.00262771 0.0154459 4.54829 -2.11051 3.50779 
1495 94 3 1.008 0.03 23.9604 5.61157 2.07957 122.325 103.976 51.2619 2 2 1 0.0244208 0.0198629 0.0222745 -10.1516 -13.4124 -3.64536 
7279 455 3 1.008 0.03 19.8007 7.35106 6.43305 68.983 7.35106 55.6154 1 0 1 0.0141136 0.00892983 0.00828735 3.12878 9.8667 2.76328 
8435 528 2 12.01 0.14 18.5597 1.45501 3.16821 -128.987 198.184 101.533 -3 4 2 0.00392798 0.00296498 0.00258355 -55.8677 25.77 7.5649 
8440 528 3 1.008 0.03 18.246 1.8761 2.21753 -129.301 198.605 100.582 -3 4 2 -0.0150441 -0.0075335 0.0140681 16.7414 -1.15157 -9.13746 
8433 528 1 16 -0.4 18.7787 2.50119 4.10812 -128.768 199.231 102.473 -3 4 2 0.00681742 -0.00186963 0.00353319 27.2389 -16.4771 -0.250402 
8437 528 2 12.01 0.11 17.7624 3.43442 4.1617 -129.785 200.164 102.526 -3 4 2 0.000927105 0.00429945 -0.00278734 -60.6522 -14.0835 -11.6678 
8446 528 3 1.008 0.03 21.1967 2.8426 3.14561 -126.35 199.572 101.51 -3 4 2 -0.00821141 0.00165891 0.0107973 5.1182 -23.0915 8.97607 
1489 94 1 16 -0.4 23.6107 7.62035 2.17679 121.975 105.985 51.3591 2 2 1 -0.00462541 0.00160767 -0.0107171 -40.8086 37.5942 -7.29188 
8443 528 3 1.008 0.03 18.0469 4.28647 4.70678 -129.5 201.016 103.071 -3 4 2 -0.000380939 -0.0164109 0.0240725 7.6748 18.6957 18.4385 
1501 94 3 1.008 0.03 21.6668 8.41804 2.21065 120.031 106.783 51.393 2 2 1 0.00521501 -0.0151007 -0.00588568 0.042073 -5.09823 13.8086 
4286 268 3 1.008 0.03 19.6747 5.0796 2.33615 167.222 -44.1027 -46.8462 3 -1 -1 -0.00581066 0.00975079 -0.0131045 -6.25488 4.84398 -5.27974 
1493 94 2 12.01 0.11 22.1766 7.4873 1.95488 120.541 105.852 51.1372 2 2 1 -0.00174319 -0.00545188 -0.00426266 32.0227 -6.59109 28.8172 
1499 94 3 1.008 0.03 21.8678 7.39208 0.960418 120.232 105.757 50.1428 2 2 1 0.00113373 -0.00504379 0.0219215 1.86263 -13.5093 -31.0656 
1491 94 2 12.01 0.14 24.4271 6.55177 1.8793 122.792 104.916 51.0617 2 2 1 -0.00472046 0.00030431 0.00535844 30.7707 -15.3399 19.7367 
7270 455 2 12.01 0.11 19.3339 8.34347 6.33949 68.5163 8.34347 55.5218 1 0 1 0.003835 0.00291735 0.0025625 -38.3514 -42.3263 16.835 
4274 268 1 16 -0.4 18.789 5.56822 0.505289 166.336 -43.6141 -48.6771 3 -1 -1 -0.00168436 -0.000590779 -0.000343465 -32.4794 14.9268 -24.5987 
5205 326 2 12.01 0.11 23.8065 2.72058 7.2247 23.8065 101.085 -41.9576 0 2 -1 0.00440295 0.00441938 0.00263441 -25.1143 10.499 32.7527 
8436 528 2 12.01 0.14 19.6656 0.457286 3.11427 -127.881 197.187 101.479 -3 4 2 -0.00166854 0.00389534 -0.00352318 19.2431 -10.6134 48.077 
5212 326 3 1.008 0.03 24.2335 2.6079 6.23318 24.2335 100.973 -42.9492 0 2 -1 -0.0111574 0.0291764 -0.0210206 4.94003 -1.36998 1.11359 
429 27 3 1.008 0.03 24.4312 1.28721 0.770836 24.4312 50.4696 49.9532 0 1 1 -0.00915994 -0.0235549 -0.0145328 -15.8936 5.87958 -10.1198 
7999 500 3 1.008 0.03 17.8351 7.33135 1.78843 116.2 56.5137 50.9708 2 1 1 0.00792146 -0.021093 0.00997021 -6.41425 -4.94886 2.46485 
8447 528 3 1.008 0.03 21.8189 1.38 4.10981 -125.728 198.109 102.475 -3 4 2 0.00309187 -0.0138199 0.0131986 -3.48982 2.15636 19.366 
4287 268 3 1.008 0.03 19.3377 3.73185 1.27478 166.885 -45.4505 -47.9076 3 -1 -1 0.0248719 0.0118677 -0.0130735 -3.12001 -6.47966 -1.12418 
5201 326 1 16 -0.4 22.437 2.33163 7.26355 22.437 100.696 -41.9188 0 2 -1 0.00379681 0.000955772 0.00205544 6.57298 27.4877 10.4137 
8434 528 1 16 -0.4 20.7808 0.903934 2.39093 -126.766 197.633 100.756 -3 4 2 9.43207e-05 0.0067294 0.00377211 10.2824 8.57084 -4.36495 
5203 326 2 12.01 0.14 22.1958 0.982047 7.12913 22.1958 99.3467 -42.0532 0 2 -1 -0.00371291 -0.00505786 -0.00108304 14.9612 -33.483 -54.8885 
4288 268 3 1.008 0.03 20.6246 4.90162 0.863911 168.172 -44.2807 -48.3184 3 -1 -1 -0.0108566 0.0142706 -0.0109565 -17.9598 -7.78403 8.44245 
8439 528 3 1.008 0.03 17.5842 0.98143 3.40786 -129.963 197.711 101.773 -3 4 2 0.0451939 0.00476469 0.0151431 18.103 -2.04579 6.77599 
5208 326 3 1.008 0.03 22.8952 0.603225 6.35704 22.8952 98.9679 -42.8253 0 2 -1 -0.0157259 -0.00318951 0.0408051 -5.71087 2.66224 9.61017 
1152 72 3 1.008 0.03 20.1829 2.95306 7.39116 20.1829 -46.2293 105.756 0 -1 2 0.0274953 0.0376443 0.00599227 -33.3241 -3.72189 16.3248 
1151 72 3 1.008 0.03 19.2174 4.34041 7.39212 19.2174 -44.8419 105.757 0 -1 2 -0.01693 -0.02484 -0.0103846 -8.74648 1.80293 12.9272 
8247 516 3 1.008 0.03 8.33062 10.1294 2.53718 57.513 10.1294 -95.8275 1 0 -2 0.0178725 0.0213448 0.00389347 0.498124 0.263107 3.51349 
7785 487 3 1.008 0.03 6.29819 14.1585 1.32505 55.4805 14.1585 1.32505 1 0 0 -0.00361814 0.00261285 -0.00287544 13.851 2.11701 7.80257 
3956 248 2 12.01 0.14 3.50797 10.7914 7.02037 52.6903 10.7914 -42.162 1 0 -1 0.00304999 0.00149591 0.0075787 14.9893 -40.5892 -25.7309 
8241 516 1 16 -0.4 8.59984 9.68489 4.51622 57.7822 9.68489 -93.8485 1 0 -2 0.00652969 0.00735162 -0.00156469 36.4822 12.8683 15.1177 
8730 546 3 1.008 0.03 2.41469 8.69852 2.60839 51.597 -89.6662 51.7907 1 -2 1 0.00977985 0.00244386 0.00688755 -3.43265 -5.30719 -7.27307 
3961 248 3 1.008 0.03 2.52092 10.3801 7.2572 51.7033 10.3801 -41.9252 1 0 -1 -0.010164 -0.0220186 0.000222535 4.62323 -3.2098 -2.70542 
7780 487 2 12.01 0.14 6.45681 13.1073 1.09082 55.6392 13.1073 1.09082 1 0 0 -0.000313921 0.00152468 0.00319459 -23.6068 4.93358 -43.9205 
8245 516 2 12.01 0.11 7.44347 9.04917 4.8641 56.6258 9.04917 -93.5006 1 0 -2 0.00803636 0.000161996 0.00272881 5.18386 7.38425 14.5631 
1541 97 2 12.01 0.11 8.37809 13.9164 5.76831 57.5604 -35.266 -43.414 1 -1 -1 0.0014043 -0.000399323 -0.00192076 -27.2374 -38.1558 -3.40241 
3954 248 1 16 -0.4 3.92153 10.3342 5.71505 53.1039 10.3342 -43.4673 1 0 -1 0.00357809 -0.00390448 0.00296849 19.1427 -9.0937 19.7776 
3958 248 2 12.01 0.11 3.18942 10.7164 4.58983 52.3718 10.7164 -44.5925 1 0 -1 0.00165156 0.00263349 -0.00124506 -24.2175 10.6671 13.8748 
4875 305 3 1.008 0.03 0.953457 11.6689 2.493 99.3182 60.8512 -46.6893 2 1 -1 -0.0227327 0.0213635 -0.0100059 -11.2797 3.01182 7.85102 
7790 487 3 1.008 0.03 4.77199 12.0327 2.84785 53.9543 12.0327 2.84785 1 0 0 0.00921017 0.0119073 -0.00924366 13.5863 5.71714 1.04228 
4869 305 2 12.01 0.11 1.03059 12.5039 1.80425 99.3953 61.6862 -47.3781 2 1 -1 -0.00640964 0.00292947 0.00541479 10.9375 -6.84433 11.3378 
1547 97 3 1.008 0.03 8.10844 13.2996 4.90224 57.2908 -35.8828 -44.2801 1 -1 -1 -0.0104919 0.0134229 -0.00207686 10.877 0.514412 1.58821 
3962 248 3 1.008 0.03 3.33491 11.8173 6.95177 52.5173 11.8173 -42.2306 1 0 -1 0.00276755 0.004073 0.00478158 5.22053 34.8513 9.34921 
5927 371 3 1.008 0.03 5.21745 15.3244 4.65058 5.21745 113.689 103.015 0 2 2 -0.00818452 -0.0243519 0.00304411 -6.3802 -2.21468 14.3919 
5923 371 2 12.01 0.14 4.78052 16.2977 4.44854 4.78052 114.662 102.813 0 2 2 0.00586109 0.00410973 0.00793761 -12.6292 -27.4563 -29.653 
5931 371 3 1.008 0.03 4.3357 15.8671 7.12364 4.3357 114.232 105.488 0 2 2 0.0126342 0.0236234 0.0119314 -12.7564 22.7424 -15.6134 
5922 371 1 16 -0.4 6.99181 16.563 3.52844 6.99181 114.928 101.893 0 2 2 0.00419288 -0.00462985 0.00232903 -17.9074 0.879939 -7.56785 
7792 487 3 1.008 0.03 5.50253 13.421 3.58965 54.6849 13.421 3.58965 1 0 0 -0.0379121 0.00139108 -0.0179097 9.55384 9.9671 -6.17025 
3968 248 3 1.008 0.03 3.15523 11.8216 4.50595 52.3376 11.8216 -44.6764 1 0 -1 -0.0204087 0.000260738 0.014611 2.28909 -13.1122 -6.29713 
3967 248 3 1.008 0.03 2.17678 10.3598 4.73792 51.3591 10.3598 -44.4444 1 0 -1 -0.0092947 -0.0128223 -0.0112165 -5.86167 2.43821 -0.503719 
3966 248 3 1.008 0.03 3.53733 10.1844 3.71007 52.7197 10.1844 -45.4723 1 0 -1 -0.0080915 -0.0194017 0.0170677 7.38984 8.83914 -4.21131 
4876 305 3 1.008 0.03 2.05927 12.8778 2.00298 100.424 62.0601 -47.1794 2 1 -1 0.00984623 0.00652473 -0.0142711 -9.12485 -6.62902 -22.0989 
8251 516 3 1.008 0.03 6.74935 9.32247 4.15405 55.9317 9.32247 -94.2106 1 0 -2 0.000758135 0.0199893 -0.0101037 -35.1771 2.58843 -25.5296 
5933 371 3 1.008 0.03 2.96425 16.7067 6.10585 2.96425 115.071 104.471 0 2 2 0.042568 0.0272082 0.00622409 14.5695 -9.66315 20.2404 
5925 371 2 12.01 0.11 3.97587 16.7977 6.58283 3.97587 115.162 104.948 0 2 2 0.00426595 -0.000699565 0.00595567 -5.88592 35.8466 -0.552797 
7791 487 3 1.008 0.03 5.99141 11.8193 4.10833 55.1738 11.8193 4.10833 1 0 0 0.0264127 0.00926497 0.0225239 0.181092 9.81861 -17.4151 
7782 487 2 12.01 0.11 5.739 12.4377 3.21072 54.9213 12.4377 3.21072 1 0 0 -0.000426356 -0.000812667 0.00431274 -33.713 -32.2011 25.7921 
7778 487 1 16 -0.4 6.68992 12.2827 2.20223 55.8723 12.2827 2.20223 1 0 0 0.00204054 0.00173423 -0.00232772 18.9339 2.78185 0.829507 
8253 516 3 1.008 0.03 7.11138 9.4397 5.80251 56.2937 9.4397 -92.5622 1 0 -2 0.00888139 -0.0139275 0.0130964 -5.52004 -2.8716 13.5661 
7786 487 3 1.008 0.03 5.47799 12.9072 0.598941 54.6603 12.9072 0.598941 1 0 0 -0.0139226 0.0143053 0.00669352 11.0153 -5.45767 14.3873 
4865 305 1 16 -0.4 0.558276 12.0262 0.567053 98.923 61.2085 -48.6153 2 1 -1 0.000180896 0.0020799 0.0114151 20.1556 -16.9437 10.5186 
5928 371 3 1.008 0.03 3.71773 16.1758 4.15003 3.71773 114.541 102.515 0 2 2 -0.0018243 -0.0118286 -0.00339539 13.92 -1.74515 -1.25001 
5929 371 3 1.008 0.03 5.22618 16.1845 2.51302 5.22618 114.549 100.878 0 2 2 0.00223415 -0.0188881 -0.00199481 4.626 7.60189 -20.1789 
1548 97 3 1.008 0.03 7.41106 14.3337 6.00628 56.5934 -34.8487 -43.1761 1 -1 -1 -0.0143431 0.00853943 0.0149645 1.02089 19.366 4.18383 
8728 546 3 1.008 0.03 0.487627 9.42984 1.10236 49.67 -88.9349 50.2847 1 -2 1 -0.00305487 -0.00598461 0.0068429 9.69426 -10.5759 -8.03157 
1544 97 3 1.008 0.03 7.68667 11.4348 6.39385 56.869 -37.7475 -42.7885 1 -1 -1 0.0194511 -0.0117216 -0.00719547 -14.1099 -9.57893 -20.7978 
1539 97 2 12.01 0.14 7.94866 12.0188 7.22483 57.131 -37.1635 -41.9575 1 -1 -1 -0.000508641 -0.00135224 -0.00228134 36.3073 21.0185 4.53661 
8243 516 2 12.01 0.14 9.00463 9.55648 3.1815 58.187 9.55648 -95.1832 1 0 -2 0.00264349 -0.00286075 0.0142981 2.45874 -0.519835 -36.5487 
8248 516 3 1.008 0.03 9.98353 10.0348 3.0423 59.1659 10.0348 -95.3224 1 0 -2 0.0311764 -0.0136118 -0.0116301 -4.33198 -1.5202 6.38506 
7988 500 2 12.01 0.14 15.5593 8.70398 1.03079 113.924 57.8863 50.2131 2 1 1 -0.00696605 -0.0048204 0.01085 -3.08082 50.068 0.0849635 
3014 189 2 12.01 0.11 15.3875 10.3572 6.9215 15.3875 -38.8251 56.1038 0 -1 1 0.00119296 -0.00110658 1.20048e-05 -43.2862 -4.83306 30.535 
8882 556 1 16 -0.4 10.5888 15.324 1.82008 108.954 15.324 -47.3623 2 0 -1 -0.000236829 0.00383612 0.000454129 -9.62383 0.271078 20.5125 
8889 556 3 1.008 0.03 9.03679 16.4858 1.10625 107.401 16.4858 -48.0761 2 0 -1 -0.0141911 0.00442562 0.00417359 -10.4945 0.674928 6.95939 
1549 97 3 1.008 0.03 9.17102 14.5848 5.49376 58.3534 -34.5975 -43.6886 1 -1 -1 0.0120766 -0.0329719 -0.00159485 1.17665 15.7198 0.374261 
4763 298 3 1.008 0.03 11.2478 16.4568 5.95816 60.4301 16.4568 5.95816 1 0 0 0.0153116 0.0201085 -0.0418905 -5.65312 -6.7617 5.09292 
8886 556 2 12.01 0.11 9.89272 14.481 2.78798 108.257 14.481 -46.3944 2 0 -1 -0.00579822 -0.00422953 -0.00392035 6.38234 38.2222 -46.751 
7987 500 2 12.01 0.14 15.1674 10.2524 0.810047 113.532 59.4348 49.9924 2 1 1 -0.011104 0.00453205 -0.00419362 -10.4605 -53.5314 -22.0084 
7989 500 2 12.01 0.11 13.4533 11.8968 1.13133 111.818 61.0791 50.3137 2 1 1 -0.000324189 0.00393655 -0.00532584 46.5619 -3.78525 -30.2278 
7992 500 3 1.008 0.03 15.8072 10.8727 1.40305 114.172 60.0551 50.5854 2 1 1 0.00645396 0.00792467 0.0186513 2.68376 10.8126 11.4089 
7689 481 3 1.008 0.03 12.3086 9.68894 6.97599 12.3086 157.236 6.97599 0 3 0 -0.0141105 -0.00598789 0.0186402 1.51281 -6.85629 -4.47356 
8334 521 3 1.008 0.03 14.2559 14.3882 5.32041 112.621 63.5705 54.5028 2 1 1 -0.00433462 0.0246096 0.00377935 -3.57221 -12.0059 -7.30085 
7690 481 3 1.008 0.03 10.8655 9.51317 5.98384 10.8655 157.06 5.98384 0 3 0 -0.011971 -0.0106915 0.0133462 4.21035 3.67936 -3.40263 
7682 481 1 16 -0.4 12.6591 9.74667 4.91485 12.6591 157.294 4.91485 0 3 0 0.000274519 -0.00609011 -0.0019047 1.91506 -13.4108 -4.15652 
7681 481 1 16 -0.4 12.2117 11.9864 7.36712 12.2117 159.533 7.36712 0 3 0 -0.00107298 -0.00299336 0.00299588 9.63393 -12.7055 -11.2537 
7687 481 3 1.008 0.03 10.6346 11.8 6.05293 10.6346 159.347 6.05293 0 3 0 -0.00220442 0.00200426 -0.00641271 -18.6365 -0.516321 2.31332 
7683 481 2 12.01 0.14 11.6613 11.5511 6.12995 11.6613 159.098 6.12995 0 3 0 0.000589535 0.000171966 -0.00308521 10.8795 5.12246 11.0539 
7684 481 2 12.01 0.14 11.841 10.0085 6.04102 11.841 157.556 6.04102 0 3 0 -0.00632164 -0.00818503 -0.000757276 -1.68044 20.9973 -1.90991 
7688 481 3 1.008 0.03 12.0968 12.2024 5.36909 12.0968 159.749 5.36909 0 3 0 -0.0109014 -0.00354842 0.0262459 7.08163 -16.0237 -8.24764 
8329 521 3 1.008 0.03 14.9996 16.1538 3.53978 113.364 65.3362 52.7221 2 1 1 0.00085716 -0.0165006 0.00756258 -13.6092 33.6503 23.7409 
7986 500 1 16 -0.4 16.3247 8.66964 2.21105 114.689 57.852 51.3934 2 1 1 0.00415011 -0.000546815 0.00623895 2.64982 11.9647 12.89 
7691 481 3 1.008 0.03 12.291 14.0606 6.89218 12.291 161.608 6.89218 0 3 0 0.00543989 0.00954572 0.017257 -1.85792 3.26 -13.6697 
8335 521 3 1.008 0.03 14.0757 13.0699 4.03208 112.44 62.2522 53.2144 2 1 1 -0.0242611 0.0160182 -0.00524433 -0.514019 6.52544 1.94835 
8330 521 3 1.008 0.03 14.4626 14.9115 2.46317 112.827 64.0938 51.6455 2 1 1 0.00754723 0.0173354 0.0111965 17.4044 10.0464 8.41763 
7985 500 1 16 -0.4 13.7533 10.4704 0.935155 112.118 59.6528 50.1175 2 1 1 -0.00483505 0.000642692 -0.00224505 9.46921 32.2294 19.8623 
8324 521 2 12.01 0.14 15.3297 15.3233 3.04535 113.694 64.5056 52.2277 2 1 1 0.00484324 -0.0051197 -0.00238984 15.2315 -85.7081 2.76055 
8326 521 2 12.01 0.11 14.7532 13.6276 4.68891 113.118 62.81 53.8713 2 1 1 0.00300617 -0.00269806 -0.00028692 -24.0077 29.862 -4.98497 
8336 521 3 1.008 0.03 15.2141 12.9487 5.31267 113.579 62.1311 54.495 2 1 1 -0.0105531 0.00584764 -0.021926 13.4843 -27.6526 26.0333 
7995 500 3 1.008 0.03 14.2389 12.4679 1.68224 112.604 61.6503 50.8646 2 1 1 -0.00651275 -0.000359433 -0.00227379 -13.0498 -17.8206 1.13206 
8322 521 1 16 -0.4 15.7819 14.2743 4.02427 114.147 63.4566 53.2066 2 1 1 -0.00538413 0.00360757 0.00253378 1.71471 42.461 -55.4051 
8323 521 2 12.01 0.14 16.4949 15.6997 2.10684 114.86 64.882 51.2892 2 1 1 -0.00538308 0.00202021 -0.000173398 18.4005 14.5314 32.5444 
8321 521 1 16 -0.4 16.0492 16.6488 1.19567 114.414 65.8311 50.378 2 1 1 0.00200128 -0.00558288 -0.00351372 -16.0393 11.0354 -4.50477 
8896 556 3 1.008 0.03 9.46079 13.7322 2.20353 107.825 13.7322 -46.9788 2 0 -1 0.0111985 -0.0116391 -0.00181115 -11.6895 -29.8583 -9.04487 
8895 556 3 1.008 0.03 9.05467 14.9266 3.29725 107.419 14.9266 -45.8851 2 0 -1 0.00660694 -0.00657204 -0.024295 -0.133817 10.9464 5.25576 
3010 189 1 16 -0.4 16.7396 10.4762 7.2009 16.7396 -38.7062 56.3833 0 -1 1 -0.00242898 0.00134 0.0015775 28.8196 1.63699 -14.6232 
7997 500 3 1.008 0.03 12.5359 12.015 1.68614 110.901 61.1973 50.8685 2 1 1 0.00473382 0.0257841 0.00896555 -11.6805 5.84245 -5.09116 
8894 556 3 1.008 0.03 10.5784 14.0195 3.42289 108.943 14.0195 -45.7595 2 0 -1 0.00882112 0.0026241 -0.00296725 18.2921 -11.4056 25.4945 
3022 189 3 1.008 0.03 14.9497 9.40208 7.30539 14.9497 -39.7803 56.4877 0 -1 1 -0.00508698 0.00701039 0.0204509 11.5784 13.5952 -15.1607 
4765 298 3 1.008 0.03 11.8064 16.3326 4.29063 60.9887 16.3326 4.29063 1 0 0 0.00343625 0.0203551 -0.00465558 -9.44293 0.749338 -2.99435 
1537 97 1 16 -0.4 8.78863 13.1049 6.84493 57.971 -36.0775 -42.3374 1 -1 -1 0.00331373 0.0103109 -0.00671264 5.60946 0.944722 4.27569 
8884 556 2 12.01 0.14 9.75929 15.7745 0.750505 108.124 15.7745 -48.4318 2 0 -1 -0.000989636 -0.00224575 -0.00178349 26.2602 0.165847 10.1915 
3024 189 3 1.008 0.03 15.2284 10.5196 5.85552 15.2284 -38.6628 55.0379 0 -1 1 -0.0247152 -0.0306442 0.0109072 -3.23395 -7.03473 -0.607533 
7280 455 3 1.008 0.03 19.68 9.00976 7.10828 68.8624 9.00976 56.2906 1 0 1 -0.0168804 0.00990453 0.014681 10.5869 8.65748 3.12583 
7266 455 1 16 -0.4 19.5002 8.78102 5.02339 68.6826 8.78102 54.2057 1 0 1 -0.00119851 0.00232282 0.0039462 -10.9602 0.739513 -10.86 
10454 665 9 24.305 2 24.681 13.067 1.87221 73.8633 13.067 1.87221 1 0 0 -0.00346148 -0.000405583 0.00235794 25.6061 9.30623 -6.17438 