ITEM: TIMESTEP
3100000
ITEM: NUMBER OF ATOMS
10479
ITEM: BOX BOUNDS pp pp pp
4.0882558190751794e-01 4.9591174418091420e+01
4.0882558190751794e-01 4.9591174418091420e+01
4.0882558190751794e-01 4.9591174418091420e+01
ITEM: ATOMS id mol type mass q x y z xu yu zu ix iy iz vx vy vz fx fy fz 
10126 636 6 16 -0.53 4.20856 5.75516 2.39211 4.20856 5.75516 51.5745 0 0 1 -0.000409587 0.00248442 -0.00474201 10.8831 -5.13917 -1.57037 
10127 636 6 16 -0.53 3.01238 3.70057 3.01668 3.01238 3.70057 52.199 0 0 1 0.000993497 0.00918856 0.00330973 12.4639 -39.4997 33.4134 
10125 636 5 32.06 1.02 3.36092 4.6583 2.01695 3.36092 4.6583 51.1993 0 0 1 0.00385436 -0.00012082 0.00726246 -29.9647 5.45894 -30.1295 
10129 636 8 19 -0.16 1.85111 6.46476 0.914777 1.85111 6.46476 50.0971 0 0 1 -0.00965403 0.00269155 -0.0053516 -3.86587 -11.384 7.99646 
10128 636 7 12.01 0.35 1.74033 5.47461 1.80907 1.74033 5.47461 50.9914 0 0 1 0.00128877 -0.00230552 -0.00422022 -26.33 65.8555 12.1967 
7921 496 1 16 -0.4 5.06653 2.36794 4.87075 5.06653 2.36794 54.0531 0 0 1 -0.00114781 0.00203425 0.00734399 -2.47008 -13.1971 -19.3061 
9618 602 7 12.01 0.35 5.5378 7.97445 5.89732 54.7201 57.1568 55.0797 1 1 1 -0.000272768 0.00255861 0.00409538 -25.0145 11.7863 -43.7161 
10117 636 4 14.01 -0.66 3.49012 3.96882 0.592265 3.49012 3.96882 49.7746 0 0 1 -0.00341993 -0.00144322 0.00099815 15.284 18.9269 12.9667 
7923 496 2 12.01 0.14 6.25005 2.04741 4.0888 6.25005 2.04741 53.2712 0 0 1 -0.007683 -0.00396681 0.00219304 -9.57579 -19.6195 -7.38984 
7927 496 3 1.008 0.03 6.79197 2.91878 3.82094 6.79197 2.91878 53.0033 0 0 1 -0.00734102 0.000120172 -0.00928795 5.4389 21.4225 -4.1856 
9619 602 8 19 -0.16 4.40843 8.57227 5.49465 53.5908 57.7546 54.677 1 1 1 0.00063178 -0.00833263 0.00117749 10.3557 -2.8211 12.6158 
7928 496 3 1.008 0.03 6.99234 1.46179 4.62935 6.99234 1.46179 53.8117 0 0 1 -0.0136792 -0.0164017 0.0129674 -6.26676 -4.05496 2.83933 
9621 602 8 19 -0.16 5.77412 7.09734 4.91234 54.9565 56.2797 54.0947 1 1 1 -0.00523905 0.00235072 -0.00314934 7.73844 7.91757 13.6263 
9616 602 6 16 -0.53 4.44458 6.03352 7.21432 53.6269 55.2159 56.3967 1 1 1 0.00119509 0.00422344 0.000149473 4.84746 -16.8732 -0.413618 
975 61 3 1.008 0.03 0.653685 2.70201 1.98039 0.653685 2.70201 51.1627 0 0 1 -0.0329256 0.0178582 0.00659207 9.3067 -20.5117 15.2577 
10131 636 8 19 -0.16 1.24433 6.06996 2.93106 1.24433 6.06996 52.1134 0 0 1 0.00604981 -0.00585977 -0.00757084 26.2371 -17.5598 -21.5022 
7924 496 2 12.01 0.14 5.88709 1.28566 2.77859 5.88709 1.28566 51.9609 0 0 1 -0.00405664 -0.00491657 0.000284242 61.2012 -25.3849 -20.7072 
7929 496 3 1.008 0.03 6.51948 1.70315 1.89517 6.51948 1.70315 51.0775 0 0 1 -0.039248 -0.00337812 0.0148772 -27.131 -14.4229 37.6918 
2249 141 3 1.008 0.03 2.6051 4.37358 5.44813 2.6051 4.37358 54.6305 0 0 1 -0.0161815 -0.00563512 0.00933026 -7.70173 -14.472 13.3593 
7922 496 1 16 -0.4 4.51708 1.43375 2.56713 4.51708 1.43375 51.7495 0 0 1 -0.00154914 0.0024528 0.00244897 -30.6599 0.0265179 -33.3267 
962 61 1 16 -0.4 1.70688 1.04034 3.03344 1.70688 1.04034 52.2158 0 0 1 -0.00347686 0.00401518 -0.0050485 0.252401 0.501158 -2.7447 
2244 141 2 12.01 0.14 1.92289 3.70075 6.02546 1.92289 3.70075 55.2078 0 0 1 0.00284227 -0.00333094 0.00412692 16.6024 41.6945 -20.3624 
2242 141 1 16 -0.4 2.21812 2.36222 5.63683 2.21812 2.36222 54.8192 0 0 1 -0.00105678 0.000558158 -0.000415845 -8.01356 -14.8375 15.2601 
10461 672 9 24.305 2 3.3126 1.89681 4.03118 3.3126 1.89681 53.2135 0 0 1 0.00254954 0.00208313 0.00104172 -12.0829 12.4274 -3.39059 
2246 141 2 12.01 0.11 1.56659 1.49089 6.61016 1.56659 1.49089 55.7925 0 0 1 0.00761792 0.00205023 0.00235764 9.98966 19.8354 -19.8821 
7926 496 2 12.01 0.11 4.17853 0.959554 1.21132 4.17853 0.959554 50.3937 0 0 1 0.00408319 -0.000515241 -0.0063036 50.1905 -37.5726 32.2939 
7925 496 2 12.01 0.11 5.45738 3.04166 6.05447 5.45738 3.04166 55.2368 0 0 1 -0.00382924 0.00805789 -0.00795704 -28.5973 -44.3372 18.5781 
7933 496 3 1.008 0.03 6.20159 2.43584 6.60881 6.20159 2.43584 55.7912 0 0 1 -0.0291374 -0.027386 0.0103548 0.73933 15.8929 -6.17192 
7931 496 3 1.008 0.03 5.70108 4.02751 5.80615 5.70108 4.02751 54.9885 0 0 1 -0.0166851 -0.00513202 -0.0123242 13.5545 26.6451 -1.96642 
2250 141 3 1.008 0.03 2.10275 3.96909 7.06157 2.10275 3.96909 56.2439 0 0 1 0.0152411 0.0105147 -0.0240432 4.24356 -7.33758 6.16855 
7932 496 3 1.008 0.03 4.59232 3.08367 6.73653 4.59232 3.08367 55.9189 0 0 1 0.0109061 0.014481 0.0160719 6.50386 2.47661 -6.1434 
2061 129 3 1.008 0.03 8.40979 6.6772 4.57606 57.5921 55.8595 53.7584 1 1 1 0.0162544 0.00702988 -0.00329755 -10.6136 -13.0777 -15.3631 
2053 129 2 12.01 0.11 8.25944 5.71921 4.01851 57.4418 54.9016 53.2009 1 1 1 0.00183785 0.00143271 -0.00599874 0.578836 -9.6899 31.0084 
2243 141 2 12.01 0.14 0.530761 4.18909 5.62234 0.530761 4.18909 54.8047 0 0 1 0.00217889 0.0100458 -0.00592637 -14.7065 -17.3846 -13.0844 
7935 496 3 1.008 0.03 4.90321 1.16715 0.421976 4.90321 1.16715 49.6043 0 0 1 0.00286397 -0.0266083 -0.00419033 0.994243 10.9975 3.85101 
10130 636 8 19 -0.16 0.731685 4.74131 1.39556 0.731685 4.74131 50.5779 0 0 1 0.00141272 0.000266774 -0.000341438 6.47027 -18.4856 -9.34083 
2412 151 3 1.008 0.03 7.54624 8.3903 2.26515 155.093 155.937 100.63 3 3 2 0.00684038 -0.00461814 -0.0108222 -15.5374 -0.221497 2.47171 
2411 151 3 1.008 0.03 5.71023 8.5583 2.08076 153.257 156.105 100.445 3 3 2 0.0167328 0.0171668 0.00201796 1.2288 -7.21238 1.46821 
2254 141 3 1.008 0.03 1.26091 0.63228 6.05262 1.26091 0.63228 55.235 0 0 1 0.0055119 0.00186166 -0.00963362 -9.67138 -11.7989 -0.379704 
2256 141 3 1.008 0.03 0.713048 1.92799 7.14771 0.713048 1.92799 56.3301 0 0 1 0.0131169 -0.0320857 0.00873415 -0.232788 -4.66257 -10.4041 
976 61 3 1.008 0.03 0.909934 1.301 1.08228 0.909934 1.301 50.2646 0 0 1 0.00345814 -0.0306449 -0.00952494 12.0294 -16.4325 -20.5269 
7934 496 3 1.008 0.03 3.25286 1.25695 0.859906 3.25286 1.25695 50.0423 0 0 1 0.0215859 0.0175889 -0.00448872 -34.5129 10.8255 -8.55892 
2247 141 3 1.008 0.03 0.511134 5.25984 5.48505 0.511134 5.25984 54.6674 0 0 1 0.0176073 -3.60066e-05 0.00501193 7.99585 6.78798 -2.1063 
2060 129 3 1.008 0.03 7.20498 5.41544 3.89649 56.3873 54.5978 53.0788 1 1 1 -0.00148036 0.0144627 -0.00212151 6.64669 7.65245 7.56009 
2056 129 3 1.008 0.03 7.67277 4.37155 6.25347 56.8551 53.5539 55.4358 1 1 1 0.000869869 -0.0246696 -0.00207158 -15.6267 10.6472 -2.98458 
966 61 2 12.01 0.11 0.777388 1.59636 2.0831 0.777388 1.59636 51.2654 0 0 1 0.00252284 0.00336345 -0.001406 -26.7239 11.6561 16.5402 
2255 141 3 1.008 0.03 2.2468 1.13716 7.36143 2.2468 1.13716 56.5438 0 0 1 -0.00205626 -0.0302179 0.0353866 10.3951 -0.0802808 5.64597 
8463 529 3 1.008 0.03 13.7427 7.3366 0.472901 62.925 56.519 98.8376 1 1 2 0.0124279 0.00321764 -0.0204004 -10.8977 -4.40293 -17.0345 
4281 268 3 1.008 0.03 10.0852 4.57316 2.13591 157.632 -44.6092 -47.0464 3 -1 -1 0.014341 -0.0254045 0.00221175 31.2632 -17.7312 -7.3361 
4286 268 3 1.008 0.03 10.2765 6.75201 1.89639 157.824 -42.4303 -47.286 3 -1 -1 -0.0230052 0.000719453 -0.00592626 -10.0424 11.0087 -9.56757 
4288 268 3 1.008 0.03 11.8027 7.56084 2.20688 159.35 -41.6215 -46.9755 3 -1 -1 0.00835851 0.00356517 -0.0227431 5.96249 16.9672 -7.17746 
4287 268 3 1.008 0.03 10.9391 6.80706 3.52202 158.486 -42.3753 -45.6603 3 -1 -1 -0.0120244 0.00424364 0.0166507 9.37273 -9.05804 -17.5586 
4278 268 2 12.01 0.11 11.1994 6.71791 2.43639 158.746 -42.4644 -46.746 3 -1 -1 0.00856826 -0.0129403 -0.00687623 -11.7775 2.23357 31.0641 
4282 268 3 1.008 0.03 11.1523 4.31275 3.46837 158.699 -44.8696 -45.714 3 -1 -1 0.00105547 -0.0100865 0.00658989 5.20629 1.70954 5.59607 
2059 129 3 1.008 0.03 8.64483 5.78663 3.04015 57.8272 54.969 52.2225 1 1 1 0.00721294 0.0101956 0.0130633 3.10383 9.94725 -18.8356 
4276 268 2 12.01 0.14 11.1792 4.43677 2.39328 158.726 -44.7456 -46.7891 3 -1 -1 0.00547245 0.00255878 -0.000116439 -14.5163 -47.5433 -7.23283 
4274 268 1 16 -0.4 11.8667 5.56047 2.034 159.414 -43.6219 -47.1483 3 -1 -1 0.00767355 0.0075474 0.000220715 22.4329 14.7925 -5.12086 
1092 69 2 12.01 0.14 13.1517 6.00963 6.04919 62.334 6.00963 -92.3155 1 0 -2 -0.00043428 0.00141345 -0.0019401 -3.71888 21.3073 4.44576 
4273 268 1 16 -0.4 10.9006 2.14637 1.91222 158.448 -47.036 -47.2701 3 -1 -1 -0.00330527 0.00269165 -0.00191795 30.9824 13.3182 -13.92 
4279 268 3 1.008 0.03 12.733 2.83778 2.37764 160.28 -46.3446 -46.8047 3 -1 -1 -0.0215027 -0.0157382 0.014001 21.559 0.142783 7.48215 
4275 268 2 12.01 0.14 11.9272 3.15908 1.76811 159.474 -46.0233 -47.4142 3 -1 -1 -0.000771428 -0.00638785 -0.00142058 -78.346 18.3932 41.885 
8450 529 1 16 -0.4 15.637 6.74972 0.878533 64.8194 55.9321 99.2432 1 1 2 -0.000216547 -0.00134014 -0.00913666 36.4158 -21.25 -6.08075 
9761 612 7 12.01 0.35 15.0713 1.40584 1.02421 -34.111 50.5882 1.02421 -1 1 0 0.00228572 0.00178791 0.00450607 -3.63805 -25.1382 -59.7465 
8464 529 3 1.008 0.03 13.9736 6.81695 2.08833 63.1559 55.9993 100.453 1 1 2 -0.0211515 -0.00771877 -0.0151192 2.87502 -2.0781 15.3991 
9763 612 8 19 -0.16 14.8525 2.6624 1.23384 -34.3298 51.8448 1.23384 -1 1 0 -0.00231169 0.00178229 -0.00181133 -12.2461 25.0243 11.9673 
1094 69 2 12.01 0.11 14.3825 4.24677 5.12969 63.5649 4.24677 -93.235 1 0 -2 -0.00364509 0.0032452 -0.0098858 -4.1522 5.26236 5.1188 
1103 69 3 1.008 0.03 15.0613 3.42636 5.31595 64.2437 3.42636 -93.0487 1 0 -2 0.0140718 -0.0119347 -0.0106388 6.47463 5.14515 4.5201 
9764 612 8 19 -0.16 16.2747 1.17426 1.47382 -32.9077 50.3566 1.47382 -1 1 0 0.00470171 0.00348795 -0.000594777 8.00027 -7.01121 12.8843 
1090 69 1 16 -0.4 13.9864 4.97765 6.26534 63.1687 4.97765 -92.0994 1 0 -2 -0.000160135 0.00725365 0.000119435 36.127 -37.1576 20.6555 
1104 69 3 1.008 0.03 13.5784 3.7957 4.63203 62.7607 3.7957 -93.7327 1 0 -2 -0.0149488 -0.00775289 -0.0210836 -27.0441 -10.1858 -8.67834 
1102 69 3 1.008 0.03 14.7549 4.95071 4.43427 63.9372 4.95071 -93.9304 1 0 -2 -0.0233276 0.0199661 -0.0170265 18.5816 7.63463 -17.0889 
1097 69 3 1.008 0.03 12.2024 5.5819 5.845 61.3847 5.5819 -92.5197 1 0 -2 0.00773037 0.0111122 0.0334781 -19.3477 -0.696116 -16.078 
2057 129 3 1.008 0.03 10.514 3.34026 6.24187 59.6964 52.5226 55.4242 1 1 1 0.0178107 0.0271198 -0.00391966 -8.45454 10.5828 0.984321 
1098 69 3 1.008 0.03 13.5612 6.69197 5.32551 62.7435 6.69197 -93.0392 1 0 -2 -0.00357409 0.000390418 0.0147165 -6.66085 3.13503 -16.7648 
4277 268 2 12.01 0.11 11.2648 0.990543 1.18948 158.812 -48.1918 -47.9929 3 -1 -1 -0.00327429 0.00134744 -0.00125837 -27.3933 -7.43741 -35.5243 
2049 129 1 16 -0.4 9.0189 4.69951 4.67752 58.2012 53.8819 53.8599 1 1 1 0.000977304 0.00036264 0.000660356 -17.4462 17.5172 -13.9981 
8454 529 2 12.01 0.11 14.4507 7.3013 1.26146 63.6331 56.4837 99.6262 1 1 2 -0.000157466 0.000153545 0.00246278 3.84177 61.8575 4.46199 
2051 129 2 12.01 0.14 8.67487 4.64179 6.03304 57.8572 53.8241 55.2154 1 1 1 0.00197493 0.00495024 -0.00238741 44.2712 -35.5416 30.2998 
8462 529 3 1.008 0.03 14.7245 8.39105 1.43315 63.9068 57.5734 99.7979 1 1 2 -0.015175 -0.00447516 -0.0250683 -18.7836 -28.8067 6.04917 
9098 569 3 1.008 0.03 16.1452 8.45208 6.21382 -33.0372 57.6344 -42.9685 -1 1 -1 0.0306435 -0.01345 -0.00298908 -16.6047 -22.1097 1.68621 
4280 268 3 1.008 0.03 12.2457 3.3573 0.772676 159.793 -45.8251 -48.4097 3 -1 -1 -0.0109152 -0.0151132 -0.0240966 2.79771 -1.49124 -17.0479 
8452 529 2 12.01 0.14 16.6476 6.92499 1.88713 65.8299 56.1073 100.252 1 1 2 -0.00116971 0.00154793 -0.00606053 -8.45921 -39.1837 -0.750454 
8457 529 3 1.008 0.03 16.2842 6.45632 2.82501 65.4666 55.6387 101.19 1 1 2 -0.00972426 0.00226336 0.0246498 4.31657 5.87535 -14.9811 
10138 637 8 19 -0.16 16.6086 2.14674 5.88468 -32.5738 51.3291 5.88468 -1 1 0 -0.00057098 0.00170901 0.000479717 6.32259 -10.0904 9.15019 
10137 637 8 19 -0.16 16.6855 2.02742 3.83952 -32.4969 51.2098 3.83952 -1 1 0 -0.00236521 -0.00245511 0.00288922 -9.44282 4.97378 -24.5752 
2050 129 1 16 -0.4 8.79848 2.21236 5.9732 57.9808 51.3947 55.1556 1 1 1 -0.00136608 0.00666616 0.000683873 6.8218 49.2609 39.2947 
4831 302 3 1.008 0.03 9.76276 8.3028 5.58618 157.31 -40.8796 -43.5962 3 -1 -1 0.016886 0.00847768 -0.0277138 1.93274 -9.72028 4.63998 
2064 129 3 1.008 0.03 10.3546 0.975833 5.93687 59.537 50.1582 55.1192 1 1 1 0.0144981 -0.0187723 0.021462 -8.31846 0.0585333 6.46658 
1091 69 2 12.01 0.14 13.069 6.74899 7.34378 62.2513 6.74899 -91.0209 1 0 -2 0.00165802 -0.00500953 0.00477907 22.016 49.5921 36.5219 
2052 129 2 12.01 0.14 9.46477 3.38648 6.58675 58.6471 52.5688 55.7691 1 1 1 0.0049856 0.0011797 -0.00124845 -14.2897 -0.275099 -69.2683 
2055 129 3 1.008 0.03 8.9442 5.56111 6.56788 58.1265 54.7435 55.7502 1 1 1 0.00959405 -0.0193688 0.00140711 -0.293384 -3.70834 -1.88413 
9762 612 8 19 -0.16 14.1946 0.679068 1.69459 -34.9877 49.8614 1.69459 -1 1 0 -0.00265536 0.000696165 0.00523115 5.45313 3.32307 11.1776 
2054 129 2 12.01 0.11 9.42804 1.12369 6.52272 58.6104 50.306 55.7051 1 1 1 0.00617022 0.0107586 1.34696e-05 66.5348 -4.54644 20.4578 
432 27 3 1.008 0.03 13.105 0.827049 6.93015 13.105 50.0094 56.1125 0 1 1 -0.00656586 0.00433562 0.00239016 -5.48435 3.79366 10.8462 
1226 77 3 1.008 0.03 24.8491 8.38911 2.99494 24.8491 57.5715 2.99494 0 1 0 0.00540275 -0.00174479 0.0254631 -7.93002 11.8868 -6.6469 
10134 637 6 16 -0.53 19.438 0.97338 6.05165 -29.7443 50.1557 6.05165 -1 1 0 0.00508962 0.00320063 -0.00232176 7.90128 -2.7572 21.9305 
1218 77 1 16 -0.4 24.9766 7.34618 4.8152 24.9766 56.5285 4.8152 0 1 0 -0.000590067 0.00292402 0.00182172 -28.6267 7.95909 -9.64357 
8453 529 2 12.01 0.11 19.9331 7.74335 1.11557 69.1154 56.9257 99.4803 1 1 2 0.00149059 0.00569944 0.000831867 14.446 -32.7131 42.9013 
8455 529 3 1.008 0.03 17.8836 5.40734 0.886047 67.0659 54.5897 99.2507 1 1 2 -0.0454021 0.0104732 0.00420941 -6.48002 -20.3649 -11.6144 
2643 166 2 12.01 0.14 23.8628 3.38311 6.51267 23.8628 52.5655 6.51267 0 1 0 -0.00164379 0.00523261 0.00213723 -14.1108 47.1445 -28.046 
8451 529 2 12.01 0.14 17.985 6.28787 1.45832 67.1673 55.4702 99.823 1 1 2 -0.00235118 0.0059676 -0.00349056 18.5815 51.241 -5.95882 
8458 529 3 1.008 0.03 16.8596 7.93711 2.09259 66.0419 57.1195 100.457 1 1 2 0.0165078 0.0252009 0.00164472 -2.59135 25.0387 6.71655 
8456 529 3 1.008 0.03 18.5573 6.0367 2.34093 67.7396 55.2191 100.706 1 1 2 0.0298992 0.0167065 -0.01251 3.74235 -2.44909 4.19861 
10143 637 7 12.01 0.35 19.5611 2.42871 1.41592 -29.6213 51.6111 1.41592 -1 1 0 0.000840065 -0.00143869 0.00121577 -24.0218 -31.9972 -24.3268 
4690 294 1 16 -0.4 22.7558 7.2618 6.53589 22.7558 56.4441 6.53589 0 1 0 0.0052991 -0.00457235 -0.00453976 -0.123925 -18.2006 -25.8045 
4694 294 2 12.01 0.11 21.609 7.94066 6.07971 21.609 57.123 6.07971 0 1 0 -0.00132985 -0.00381426 -0.00696835 -44.3159 13.4692 -10.4824 
1228 77 3 1.008 0.03 21.2786 5.41204 2.84631 21.2786 54.5944 2.84631 0 1 0 -0.0112365 -0.014364 0.00119738 -25.2739 15.5471 -29.6716 
10140 637 5 32.06 1.02 20.3577 1.21856 2.47939 -28.8247 50.4009 2.47939 -1 1 0 -0.00058252 -0.00254719 0.0010149 52.3065 -10.5395 -6.68358 
1217 77 1 16 -0.4 22.9265 5.83843 4.01752 22.9265 55.0208 4.01752 0 1 0 -0.00736844 0.00398019 -0.00967713 14.8346 0.457485 10.735 
1221 77 2 12.01 0.11 21.9737 4.96764 3.46491 21.9737 54.15 3.46491 0 1 0 0.000159557 -0.00450393 -0.00250202 -2.18557 -67.1253 56.1337 
1227 77 3 1.008 0.03 21.3659 4.54513 4.32194 21.3659 53.7275 4.32194 0 1 0 0.00743353 0.0204491 -0.0259194 13.7742 16.3649 -22.8884 
4704 294 3 1.008 0.03 21.1134 7.40393 5.26286 21.1134 56.5863 5.26286 0 1 0 0.0153636 0.00832214 0.00140608 11.6027 0.225843 -2.03804 
10142 637 6 16 -0.53 21.5948 1.85691 2.96696 -27.5875 51.0393 2.96696 -1 1 0 -0.00167871 0.00173775 0.00267856 -45.6418 -18.9398 -6.03596 
10145 637 8 19 -0.16 19.0659 3.4273 2.08622 -30.1164 52.6097 2.08622 -1 1 0 -0.00426631 0.00280647 -0.00496003 -0.972687 24.0231 3.59746 
10133 637 5 32.06 1.02 18.9827 1.69064 4.90562 -30.1997 50.873 4.90562 -1 1 0 -0.00472798 -0.00237513 -0.00390495 -5.2711 -7.2161 -88.9437 
10135 637 6 16 -0.53 19.0976 3.13577 4.80133 -30.0848 52.3181 4.80133 -1 1 0 0.00257669 0.00516498 0.000793226 9.16158 -8.96266 19.4535 
10136 637 7 12.01 0.35 17.1903 1.48058 4.90012 -31.992 50.6629 4.90012 -1 1 0 -0.0066745 0.00248437 9.93277e-05 -16.4272 17.2804 22.4057 
4702 294 3 1.008 0.03 20.7318 7.98267 6.77583 20.7318 57.165 6.77583 0 1 0 0.0370997 0.021278 -0.00709559 24.0128 2.26818 -1.75753 
9094 569 2 12.01 0.11 17.8008 6.2927 5.35761 -31.3815 55.4751 -43.8247 -1 1 -1 -0.00166237 -0.000478013 -0.000970516 -15.797 -6.46224 -6.983 
2641 166 1 16 -0.4 22.9612 4.50524 6.30623 22.9612 53.6876 6.30623 0 1 0 -0.00469979 0.00406273 -0.00253122 1.60248 -14.3424 4.34417 
9104 569 3 1.008 0.03 18.6199 6.04196 4.72107 -30.5624 55.2243 -44.4613 -1 1 -1 0.00112956 -0.0269742 0.0153418 9.21448 -4.25313 -11.5988 
9090 569 1 16 -0.4 17.9917 7.68193 5.63698 -31.1906 56.8643 -43.5454 -1 1 -1 -0.00171504 0.00511811 0.00347824 -9.77099 -8.66808 15.4471 
9103 569 3 1.008 0.03 16.8835 6.05667 4.77978 -32.2989 55.239 -44.4026 -1 1 -1 -0.00465482 -0.0126367 -0.0166705 10.0785 8.05796 13.7088 
10146 637 8 19 -0.16 20.3594 2.85601 0.469751 -28.8229 52.0384 0.469751 -1 1 0 -0.0037089 -1.09299e-05 -0.000843496 11.4263 17.487 -2.50924 
10144 637 8 19 -0.16 18.5392 1.87575 0.744918 -30.6431 51.0581 0.744918 -1 1 0 0.00146685 -0.000998942 -0.0017428 8.25995 7.36441 12.0646 
9102 569 3 1.008 0.03 17.8902 5.54303 6.15062 -31.2921 54.7254 -43.0317 -1 1 -1 0.0264063 0.0187919 0.00675066 -1.84647 13.5193 8.11052 
1223 77 3 1.008 0.03 23.4764 6.28346 2.03371 23.4764 55.4658 2.03371 0 1 0 0.00966841 0.0321675 0.0148142 -3.19612 2.45799 14.1518 
10456 667 9 24.305 2 23.9237 5.99713 5.63237 23.9237 55.1795 5.63237 0 1 0 0.00514492 -0.00348314 5.15225e-05 -5.79943 3.69721 -2.3678 
1219 77 2 12.01 0.14 23.3435 6.74072 3.03392 23.3435 55.9231 3.03392 0 1 0 0.000457928 0.00145083 -0.00293074 0.389787 19.6654 -31.6764 
1229 77 3 1.008 0.03 22.3982 4.00867 3.07248 22.3982 53.191 3.07248 0 1 0 -0.00450529 -0.00914504 -0.0209778 2.79198 37.8736 -4.62027 
1224 77 3 1.008 0.03 22.4846 7.42764 2.90158 22.4846 56.61 2.90158 0 1 0 0.019613 -0.00311955 -0.0100407 16.3946 3.88135 2.77354 
9092 569 2 12.01 0.14 17.1147 8.25323 6.63377 -32.0676 57.4356 -42.5486 -1 1 -1 -0.00606866 0.00630997 0.00166544 19.5132 10.7759 -24.8486 
2648 166 3 1.008 0.03 23.3228 2.46738 6.57187 23.3228 51.6497 6.57187 0 1 0 0.0148067 -0.000246512 -0.0149658 -1.28657 -20.4339 5.82872 
8449 529 1 16 -0.4 18.6874 7.3157 0.673177 67.8698 56.498 99.0379 1 1 2 -0.00572686 -0.00195009 -0.00363436 -33.8709 -22.2963 -1.83665 
8460 529 3 1.008 0.03 20.6887 6.95911 0.870784 69.8711 56.1415 99.2355 1 1 2 0.0214619 0.0215104 0.00427449 -7.96008 16.2846 4.15565 
8459 529 3 1.008 0.03 19.9199 7.92756 2.21485 69.1022 57.1099 100.58 1 1 2 0.0106323 -0.0228542 0.00476056 0.097627 -7.31069 -15.1633 
2650 166 3 1.008 0.03 24.3302 2.93387 4.49545 24.3302 52.1162 4.49545 0 1 0 -0.00664028 -0.0345182 0.0295027 -7.79984 -8.51554 -17.5904 
4689 294 1 16 -0.4 24.929 6.16982 7.20617 24.929 55.3522 7.20617 0 1 0 0.00330736 -0.00379452 0.000606407 -3.3676 1.95239 -25.7535 
2644 166 2 12.01 0.14 24.817 3.39384 5.31826 24.817 52.5762 5.31826 0 1 0 -0.00242517 0.00393748 -0.00798111 -2.76758 -1.02398 10.1227 
10132 637 4 14.01 -0.66 19.2208 0.946023 3.4853 -29.9615 50.1284 3.4853 -1 1 0 0.00364481 -0.00424231 -0.00344102 0.0435346 14.7353 57.5613 
9015 564 3 1.008 0.03 23.9302 0.74883 2.91818 -25.2521 49.9312 2.91818 -1 1 0 0.00257784 -0.0011884 0.00207569 12.6299 -20.4122 14.0139 
2645 166 2 12.01 0.11 21.7368 4.33842 7.04608 21.7368 53.5208 7.04608 0 1 0 -0.000252116 -0.000155633 -0.0021406 -10.3384 -31.4132 59.8098 
2647 166 3 1.008 0.03 24.4218 3.62344 7.37995 24.4218 52.8058 7.37995 0 1 0 0.0298543 0.0219238 -0.00179955 0.563668 -13.9384 18.1488 
2651 166 3 1.008 0.03 21.4114 3.24489 7.10853 21.4114 52.4272 7.10853 0 1 0 0.0209952 0.000805063 -0.0122789 5.79753 33.9259 -8.70176 
1220 77 2 12.01 0.14 24.7029 7.40237 3.39306 24.7029 56.5847 3.39306 0 1 0 0.00180096 0.00548038 -0.00134812 6.4179 -7.20872 25.1816 
1200 75 3 1.008 0.03 24.6998 1.36861 0.79574 -24.4826 1.36861 0.79574 -1 0 0 -0.00738989 -0.000132349 0.0316365 3.0106 15.9033 9.07073 
2653 166 3 1.008 0.03 20.8881 4.92232 6.69467 20.8881 54.1047 6.69467 0 1 0 -0.0309338 -0.0043016 -0.009133 2.85359 1.80641 -8.55474 
9620 602 8 19 -0.16 6.49707 8.91521 5.82655 55.6794 58.0976 55.0089 1 1 1 0.00142088 0.000527138 0.00039842 -9.51832 -15.8501 10.889 
1743 109 3 1.008 0.03 3.19287 8.95555 2.84755 199.922 8.95555 -46.3348 4 0 -1 -0.00182766 0.0311684 -0.0081392 9.61711 -3.47442 -3.32769 
3783 237 3 1.008 0.03 1.15033 15.1143 2.59253 1.15033 64.2967 2.59253 0 1 0 -0.00690543 0.00370463 -0.0135505 5.41698 -37.9839 11.6714 
1729 109 1 16 -0.4 2.68903 13.2068 0.735678 199.418 13.2068 -48.4467 4 0 -1 0.00199571 0.0030852 0.00530898 15.4553 -30.9599 6.24303 
3779 237 2 12.01 0.14 0.705161 14.5243 3.44576 0.705161 63.7067 3.44576 0 1 0 -0.00384874 -0.00501793 0.00571123 -29.9768 40.9178 -32.9282 
1742 109 3 1.008 0.03 2.05879 9.56831 3.97763 198.788 9.56831 -45.2047 4 0 -1 0.0171616 -0.0224629 0.000489687 7.05241 12.5744 -9.15128 
1738 109 3 1.008 0.03 4.31125 11.8241 1.91186 201.041 11.8241 -47.2705 4 0 -1 -0.00623972 -0.00541354 -0.00164531 8.38834 2.9062 9.97641 
1732 109 2 12.01 0.14 3.58228 11.1553 1.49135 200.312 11.1553 -47.691 4 0 -1 -0.0047487 0.00555305 6.59924e-05 -0.201701 0.836313 -18.0488 
2416 151 3 1.008 0.03 5.99836 14.9148 2.49894 153.545 162.462 100.864 3 3 2 -0.0162136 0.00755229 0.0156841 -5.6965 5.95826 -0.745965 
2415 151 3 1.008 0.03 5.97135 14.3558 0.810069 153.518 161.903 99.1748 3 3 2 -0.00816901 -0.0218907 -0.0365503 -16.5659 -22.7218 -1.1863 
2413 151 3 1.008 0.03 6.56967 9.37285 3.42311 154.117 156.92 101.788 3 3 2 0.0167418 0.0149839 -0.00328357 -4.30001 -11.4701 11.2429 
3784 237 3 1.008 0.03 1.35988 14.6951 4.27282 1.35988 63.8775 4.27282 0 1 0 -0.0254454 -0.0212732 -0.00266811 7.72802 3.27444 12.0187 
8333 521 3 1.008 0.03 4.93667 12.9837 5.09278 103.301 62.1661 54.2751 2 1 1 0.0221958 0.0130737 0.0292545 -20.3134 8.72733 0.284715 
2405 151 2 12.01 0.11 6.64149 9.01694 2.40601 154.189 156.564 100.771 3 3 2 -0.00712054 -0.00642436 0.00351664 22.8083 33.3844 -16.7639 
2410 151 3 1.008 0.03 7.27699 12.3067 0.410714 154.824 159.854 98.7754 3 3 2 -0.0246851 0.0157344 0.0292977 5.65478 -1.51334 3.30514 
2406 151 2 12.01 0.11 6.53348 14.3763 1.72721 154.081 161.923 100.092 3 3 2 -0.00801367 -0.00340772 0.00385861 22.4344 31.9689 -3.86214 
8331 521 3 1.008 0.03 3.90529 12.2213 6.2177 102.27 61.4036 55.4001 2 1 1 -0.00298862 -0.00314673 -0.000697601 -1.84843 -10.6073 15.9064 
8323 521 2 12.01 0.14 3.99909 14.8343 6.79722 102.364 64.0166 55.9796 2 1 1 -0.00257625 -0.00646471 -0.00127246 -33.2256 -9.35245 -55.3854 
8324 521 2 12.01 0.14 3.41065 16.2195 6.84919 101.775 65.4018 56.0315 2 1 1 0.00978054 0.00286534 0.00272029 -35.0611 -24.1009 -46.2917 
8321 521 1 16 -0.4 3.21994 14.0546 5.84594 101.585 63.237 55.0283 2 1 1 0.00324065 0.000695124 -0.00725276 1.39335 33.3828 17.6563 
8325 521 2 12.01 0.11 3.8678 12.909 5.41584 102.232 62.0914 54.5982 2 1 1 -0.000545193 0.00378058 0.00240195 22.7729 -29.1302 -21.08 
8328 521 3 1.008 0.03 4.9695 14.8298 6.38826 103.334 64.0121 55.5706 2 1 1 -0.0354584 -0.0390907 -0.0141722 27.8247 9.29864 0.0331742 
2401 151 1 16 -0.4 6.82628 10.2511 1.6853 154.373 157.798 100.05 3 3 2 -0.000580626 0.00219956 0.00110394 -3.59489 -21.6632 3.057 
2403 151 2 12.01 0.14 8.01168 10.9492 2.03307 155.559 158.496 100.398 3 3 2 0.00524607 -0.00382748 0.00188051 -10.467 24.8673 31.0262 
8332 521 3 1.008 0.03 3.2873 12.373 4.65164 101.652 61.5553 53.834 2 1 1 -0.0103639 -0.00321155 -0.00227866 7.45973 10.5124 3.81702 
2404 151 2 12.01 0.14 7.82263 12.3641 1.36234 155.37 159.911 99.727 3 3 2 -0.00665649 -0.00164087 -0.00546526 -34.9394 4.10626 58.2961 
2414 151 3 1.008 0.03 7.32516 15.0283 1.33428 154.872 162.575 99.699 3 3 2 0.0155168 -0.00482445 0.0165794 1.22678 -3.60145 16.5597 
1744 109 3 1.008 0.03 3.68732 10.3264 3.94676 200.417 10.3264 -45.2356 4 0 -1 -0.0219978 0.0096244 -0.00259501 -4.37812 -14.5477 -5.45273 
2407 151 3 1.008 0.03 8.15877 10.981 3.18463 155.706 158.528 101.549 3 3 2 -0.00823731 0.0061507 0.00529428 -5.7024 5.49969 -47.8849 
2402 151 1 16 -0.4 7.09003 13.2385 2.34072 154.637 160.786 100.705 3 3 2 -0.00135295 -0.00139408 -0.000506424 23.0593 -43.1054 -44.5024 
1730 109 1 16 -0.4 2.56975 10.8101 2.40061 199.299 10.8101 -46.7817 4 0 -1 -0.00353204 0.00394265 -0.000319583 -35.0611 28.5403 -27.3524 
1734 109 2 12.01 0.11 2.89348 9.88278 3.31547 199.623 9.88278 -45.8669 4 0 -1 -0.000852045 -0.000882921 0.00804519 13.4287 -27.7456 49.2282 
3786 237 3 1.008 0.03 1.44234 12.5965 3.68509 1.44234 61.7788 3.68509 0 1 0 0.00408342 0.015897 0.00185758 -3.09134 -6.04119 -17.6493 
8330 521 3 1.008 0.03 3.18859 16.5317 5.79898 101.553 65.7141 54.9813 2 1 1 -0.00041063 -0.022243 -0.00797885 7.34006 7.7293 21.1301 
4484 281 2 12.01 0.14 8.44811 14.2934 6.62773 106.813 -34.889 154.175 2 -1 3 0.00239961 0.0025996 0.000337925 -10.8553 -2.58222 8.98994 
4490 281 3 1.008 0.03 7.32654 14.4695 6.62846 105.691 -34.7129 154.176 2 -1 3 0.0131723 0.00226569 -0.0211535 30.7093 -0.991755 -5.55996 
1737 109 3 1.008 0.03 4.10891 10.2811 1.15235 200.838 10.2811 -48.03 4 0 -1 0.00736894 0.0128977 0.0116295 3.87522 -9.37528 -3.70445 
3780 237 2 12.01 0.14 0.544228 13.0141 3.21545 0.544228 62.1965 3.21545 0 1 0 -0.00339995 -0.00527725 -0.00419829 -6.07868 2.02897 21.9139 
3662 229 3 1.008 0.03 0.529512 13.8786 6.60122 0.529512 63.061 6.60122 0 1 0 -0.0197253 0.00288939 -0.018279 -6.52225 5.36684 -1.91052 
4830 302 3 1.008 0.03 9.18466 8.90039 4.014 156.732 -40.282 -45.1684 3 -1 -1 0.0126467 -0.00464114 -0.00246549 -2.55247 -2.70329 11.5049 
4818 302 1 16 -0.4 10.9721 9.46472 4.42772 158.519 -39.7176 -44.7546 3 -1 -1 0.00445059 0.000635275 -0.0125902 44.845 18.7072 15.2126 
2409 151 3 1.008 0.03 8.79904 12.7505 1.19884 156.346 160.298 99.5635 3 3 2 0.0520172 0.0155416 0.00778204 14.5513 12.6881 -6.99507 
4822 302 2 12.01 0.11 9.73946 9.15374 4.92928 157.287 -40.0286 -44.2531 3 -1 -1 0.00110269 -0.000529054 0.00111024 -53.3862 15.2304 -2.13873 
4832 302 3 1.008 0.03 9.15491 9.96877 5.45517 156.702 -39.2136 -43.7272 3 -1 -1 0.00763836 0.00732072 0.0213617 20.8316 -14.1909 -14.9181 
4487 281 3 1.008 0.03 8.79098 14.9877 4.59355 107.156 -34.1946 152.141 2 -1 3 -0.000893899 0.0382577 0.0163033 -3.80893 12.1063 1.09873 
4826 302 3 1.008 0.03 11.4771 11.0807 5.74145 159.024 -38.1017 -43.4409 3 -1 -1 -0.00105876 -0.00910815 0.0130596 1.1486 -29.3493 -6.52798 
4820 302 2 12.01 0.14 11.7983 10.0243 5.48099 159.345 -39.158 -43.7014 3 -1 -1 0.00296368 0.0033176 -0.000608477 -6.70538 26.5696 14.6359 
479 30 3 1.008 0.03 11.2555 10.5616 2.09452 60.4379 59.744 51.2769 1 1 1 -0.0101255 -0.016489 -0.00745825 -2.41577 -3.45171 -9.72858 
4829 302 3 1.008 0.03 14.6869 12.2572 3.02316 162.234 -36.9251 -46.1592 3 -1 -1 -0.00307959 0.0504852 0.0129395 3.25195 1.52093 -12.598 
478 30 3 1.008 0.03 12.6275 11.4989 1.52451 61.8099 60.6812 50.7069 1 1 1 0.0292314 0.000826259 0.00809451 -16.1152 -5.66283 -2.43638 
4819 302 2 12.01 0.14 13.2978 10.1376 5.09446 160.845 -39.0448 -44.0879 3 -1 -1 -0.000452436 0.00503648 0.005973 -53.7299 -6.72936 -43.2875 
470 30 2 12.01 0.11 12.0429 10.576 1.33174 61.2252 59.7584 50.5141 1 1 1 0.0021933 0.0106649 -0.0038599 -1.99788 39.7626 2.16839 
480 30 3 1.008 0.03 12.8074 9.91861 1.58732 61.9897 59.101 50.7697 1 1 1 -0.00824973 0.0317439 0.0434509 14.7991 -35.5109 -2.63963 
4483 281 2 12.01 0.14 9.06931 14.1797 5.24861 107.434 -35.0026 152.796 2 -1 3 -0.002405 -0.00570691 -0.00401377 0.00626057 -2.30233 -23.3429 
4481 281 1 16 -0.4 10.4817 14.1847 5.35099 108.846 -34.9977 152.898 2 -1 3 -0.00436815 0.00578646 -0.00615218 14.4341 -0.816342 -11.6139 
4485 281 2 12.01 0.11 11.1736 13.7683 4.15032 109.538 -35.4141 151.697 2 -1 3 0.000748027 -0.00407095 -0.0002726 21.0994 -11.7964 42.8515 
4488 281 3 1.008 0.03 8.7018 13.3167 4.69554 107.066 -35.8656 152.243 2 -1 3 0.0142211 -0.00685565 -0.00761813 0.780761 -6.68095 6.26481 
4492 281 3 1.008 0.03 10.9044 14.312 3.26917 109.269 -34.8703 150.816 2 -1 3 -0.008965 -0.000992566 0.00959933 1.02958 9.50285 -11.4867 
4828 302 3 1.008 0.03 14.6655 10.4456 2.80593 162.213 -38.7367 -46.3764 3 -1 -1 -0.0108415 -0.00337458 0.00643624 3.4983 8.35435 -4.3456 
4827 302 3 1.008 0.03 15.5838 11.2125 4.0976 163.131 -37.9698 -45.0847 3 -1 -1 0.0314762 0.0240063 0.0502488 -18.7611 1.11208 3.34696 
4817 302 1 16 -0.4 13.3443 11.2599 4.19469 160.891 -37.9224 -44.9877 3 -1 -1 0.00112652 -0.00300638 0.00125162 54.0861 -19.7817 -5.84915 
4821 302 2 12.01 0.11 14.6505 11.2905 3.50213 162.198 -37.8919 -45.6802 3 -1 -1 -0.00553008 -0.00430952 5.8598e-05 -28.2987 -6.92848 24.9294 
4824 302 3 1.008 0.03 13.9095 10.3085 5.9006 161.456 -38.8738 -43.2817 3 -1 -1 0.016403 0.0196948 -0.00472263 23.4722 7.85859 35.2798 
4823 302 3 1.008 0.03 13.5631 9.16223 4.67954 161.11 -40.0201 -44.5028 3 -1 -1 -0.0141357 -0.0180885 -0.00372454 6.38678 5.74771 -6.2629 
5266 330 1 16 -0.4 14.1175 13.7344 6.8595 63.2999 -35.4479 -42.3228 1 -1 -1 -0.0030118 -0.00223211 0.000137331 21.8946 20.6223 4.492 
4825 302 3 1.008 0.03 11.6626 9.43884 6.41391 159.21 -39.7435 -42.7684 3 -1 -1 0.00924966 0.0155742 -0.000734079 7.21126 4.47161 -10.9631 
4491 281 3 1.008 0.03 10.9965 12.7297 4.00156 109.361 -36.4527 151.549 2 -1 3 0.0184361 -0.00793636 0.0186935 -15.1256 -14.7111 -8.46971 
4493 281 3 1.008 0.03 12.2768 13.6719 4.33508 110.642 -35.5105 151.882 2 -1 3 -0.0130543 -0.0242585 0.0131101 -20.1553 18.8831 -6.9892 
5279 330 3 1.008 0.03 14.0408 15.8034 6.56055 63.2231 -33.379 -42.6218 1 -1 -1 -0.0101036 0.00607361 -0.0037411 -17.036 7.666 3.54719 
5270 330 2 12.01 0.11 14.5433 14.9456 6.17125 63.7257 -34.2367 -43.0111 1 -1 -1 6.49359e-05 0.00154821 0.00305463 14.757 -5.35063 8.22133 
5278 330 3 1.008 0.03 14.3865 14.8813 5.1006 63.5688 -34.301 -44.0817 1 -1 -1 0.0037091 -0.00169743 0.00399498 -7.03702 -1.64548 -3.02628 