ITEM: TIMESTEP
1650000
ITEM: NUMBER OF ATOMS
10479
ITEM: BOX BOUNDS pp pp pp
4.0882558190751794e-01 4.9591174418091420e+01
4.0882558190751794e-01 4.9591174418091420e+01
4.0882558190751794e-01 4.9591174418091420e+01
ITEM: ATOMS id mol type mass q x y z xu yu zu ix iy iz vx vy vz fx fy fz 
2165 136 2 12.01 0.11 5.5367 5.74243 5.26384 103.901 5.74243 5.26384 2 0 0 -0.00314383 0.00670419 -0.0114385 26.0674 -20.7783 18.8016 
2172 136 3 1.008 0.03 5.57688 4.62927 5.2187 103.942 4.62927 5.2187 2 0 0 -0.0189644 0.00330487 -0.00376438 -12.4038 18.5047 -2.32528 
2161 136 1 16 -0.4 6.78792 6.10142 5.86102 105.153 6.10142 5.86102 2 0 0 -0.0012062 -0.00445776 -0.00306417 10.372 1.32268 26.6932 
916 58 2 12.01 0.14 7.67535 2.08046 3.96404 106.04 2.08046 3.96404 2 0 0 0.00063561 0.00412485 -0.00491815 25.165 -36.9072 9.66961 
921 58 3 1.008 0.03 6.82433 2.43438 4.51421 105.189 2.43438 4.51421 2 0 0 -0.0114896 -0.0212728 -0.0176176 -8.93094 11.7591 -0.483589 
4968 311 3 1.008 0.03 7.59562 6.78045 3.1465 56.778 -42.4019 52.3289 1 -1 1 0.0241009 -0.0278925 0.00837296 -5.85828 -9.70454 9.52256 
5111 320 3 1.008 0.03 1.63261 2.66792 6.53998 50.815 51.8503 55.7223 1 1 1 -0.00491589 0.0125717 0.00963229 14.2159 0.443882 -1.34845 
4877 305 3 1.008 0.03 2.53112 1.44589 4.44036 100.896 50.6282 -44.742 2 1 -1 -0.00814374 -0.0190433 -0.00164984 -6.11803 11.4226 0.153568 
2171 136 3 1.008 0.03 5.48628 6.10293 4.25169 103.851 6.10293 4.25169 2 0 0 -0.0109884 -0.00502294 -0.021214 -3.77556 6.48688 -7.56593 
3677 230 3 1.008 0.03 1.17241 7.73687 2.12083 50.3548 7.73687 51.3032 1 0 1 0.0116198 0.0235528 0.00660035 -2.53045 -13.8988 18.8722 
4865 305 1 16 -0.4 1.55812 1.26609 2.48163 99.9228 50.4484 -46.7007 2 1 -1 0.00163004 -0.00173172 -0.00244698 13.1256 -10.3795 11.7775 
3669 230 2 12.01 0.11 1.99783 7.68246 1.4409 51.1802 7.68246 50.6232 1 0 1 0.00514832 -0.0030374 0.00355218 -2.90075 47.0298 -34.2587 
5114 320 3 1.008 0.03 0.599339 4.62279 5.96819 49.7817 53.8051 55.1505 1 1 1 0.0318523 -0.0134809 0.00974936 27.7259 7.76056 -22.6554 
5113 320 3 1.008 0.03 1.6257 4.22658 4.51271 50.808 53.4089 53.6951 1 1 1 -0.00903261 0.0168652 0.00410445 -6.64173 -9.14641 -22.5612 
5119 320 3 1.008 0.03 2.51701 7.65055 5.10186 51.6994 56.8329 54.2842 1 1 1 0.0058162 0.0139738 0.0187001 15.677 30.4869 3.96655 
5107 320 2 12.01 0.14 2.33877 3.5091 6.422 51.5211 52.6914 55.6044 1 1 1 0.00325114 0.000273617 -0.000340789 -33.4791 3.31517 -23.6722 
5108 320 2 12.01 0.14 1.64437 4.54889 5.51618 50.8267 53.7312 54.6985 1 1 1 -0.00468759 -0.000196003 -0.00346934 -10.068 5.82227 48.0755 
4970 311 3 1.008 0.03 7.49523 7.19202 0.71691 56.6776 -41.9903 49.8993 1 -1 1 0.0103278 0.0315284 0.0158611 -15.1148 18.0566 -3.7275 
4869 305 2 12.01 0.11 2.27109 0.761444 3.64993 100.636 49.9438 -45.5324 2 1 -1 0.00454492 0.00195864 -0.00445527 -22.0241 14.0606 -27.9526 
5105 320 1 16 -0.4 3.56955 3.16107 5.84681 52.7519 52.3434 55.0292 1 1 1 -0.000863479 0.00376481 0.00523497 17.8627 -6.2547 8.70123 
5116 320 3 1.008 0.03 5.47266 2.46708 6.34144 54.655 51.6494 55.5238 1 1 1 -0.000345804 0.00594188 -0.0256928 -8.65772 6.39939 10.2607 
922 58 3 1.008 0.03 7.51885 2.05303 2.91131 105.884 2.05303 2.91131 2 0 0 0.0063151 0.008508 -0.00106437 -12.2624 5.87292 -16.6518 
3676 230 3 1.008 0.03 2.54116 6.76511 1.50991 51.7235 6.76511 50.6923 1 0 1 0.0147245 -0.00523324 0.0258521 6.02569 -13.5258 0.766481 
5106 320 1 16 -0.4 2.41497 5.75407 5.62501 51.5973 54.9364 54.8074 1 1 1 -0.0057921 -0.00171031 -0.000304061 -20.2832 3.60632 -0.123539 
5109 320 2 12.01 0.11 4.53721 2.79196 6.83994 53.7196 51.9743 56.0223 1 1 1 -0.00405025 0.000188963 -0.00155156 0.679293 5.08763 4.9142 
5120 320 3 1.008 0.03 2.10625 6.56226 3.80314 51.2886 55.7446 52.9855 1 1 1 0.0105752 0.00132091 0.0138589 -12.8695 7.51355 8.94884 
4867 305 2 12.01 0.14 2.28582 2.25304 1.79774 100.651 51.4354 -47.3846 2 1 -1 -0.00353151 0.0051223 0.0131465 20.8433 21.1749 52.2307 
4866 305 1 16 -0.4 1.62973 4.26038 0.66616 99.9944 53.4427 -48.5162 2 1 -1 -0.00415473 0.00254178 0.00117746 -5.11055 4.85057 -4.05349 
914 58 1 16 -0.4 7.90472 0.717805 4.3334 106.269 0.717805 4.3334 2 0 0 -0.00349094 -0.000295772 -0.000187027 -2.30473 -8.76437 -5.95539 
4963 311 2 12.01 0.14 8.50115 7.00997 2.61866 57.6835 -42.1724 51.801 1 -1 1 0.00743636 0.00272146 0.00606017 27.6893 73.0179 -27.5995 
5110 320 2 12.01 0.11 1.90658 6.8461 4.85141 51.0889 56.0284 54.0338 1 1 1 -0.00109031 0.0024502 -0.00582023 21.0567 -53.4948 -1.82694 
4871 305 3 1.008 0.03 2.30793 3.05375 2.62511 100.673 52.2361 -46.5572 2 1 -1 -0.0161102 0.00830135 0.012609 12.3912 -23.7104 -34.9977 
2173 136 3 1.008 0.03 4.71739 6.13708 5.87709 103.082 6.13708 5.87709 2 0 0 -0.0353318 -0.0158221 0.0320905 3.54595 -5.3262 -4.88996 
4868 305 2 12.01 0.14 1.59049 2.83867 0.604244 99.9552 52.021 -48.5781 2 1 -1 -0.00151547 0.00669956 0.00772724 6.52988 15.8746 -8.05089 
4872 305 3 1.008 0.03 3.29171 1.85729 1.53414 101.656 51.0396 -47.6482 2 1 -1 0.0172582 -0.0156151 -0.0011792 -10.2536 11.0144 5.45025 
5118 320 3 1.008 0.03 0.899219 7.06549 5.12016 50.0816 56.2478 54.3025 1 1 1 -0.00410598 -0.0182713 -0.00761885 -18.7753 3.51352 -3.99306 
4964 311 2 12.01 0.14 8.11967 7.86371 1.30898 57.302 -41.3186 50.4913 1 -1 1 0.00039551 0.00244502 0.00295649 68.3305 -78.4214 30.9702 
2168 136 3 1.008 0.03 7.01213 4.45655 6.92498 105.377 4.45655 6.92498 2 0 0 0.0180803 0.00240228 -0.00456569 -3.29995 -20.7885 8.40454 
2163 136 2 12.01 0.14 6.99615 5.48807 7.18483 105.361 5.48807 7.18483 2 0 0 -0.000291093 -0.0059359 -0.00492911 -45.8657 38.0815 -14.7121 
4874 305 3 1.008 0.03 0.59135 2.52133 0.556778 98.956 51.7037 -48.6256 2 1 -1 0.00468906 0.0110026 0.00397619 -24.1414 -12.5053 3.01349 
5112 320 3 1.008 0.03 2.41521 3.96897 7.36895 51.5976 53.1513 56.5513 1 1 1 -0.00966521 0.0250103 -0.0171996 7.52334 7.02235 23.3503 
3675 230 3 1.008 0.03 1.43372 7.75308 0.482354 50.6161 7.75308 49.6647 1 0 1 0.0156138 0.00998614 -0.000368824 18.4645 -6.60307 8.67961 
7806 488 3 1.008 0.03 15.3951 8.48341 1.15619 64.5774 8.48341 1.15619 1 0 0 -0.0206425 -0.00770005 -0.0146031 2.54269 -7.74276 -6.22624 
915 58 2 12.01 0.14 8.97116 2.86774 4.18019 107.336 2.86774 4.18019 2 0 0 -0.00219421 -0.00071952 0.00282831 -10.9911 8.43443 40.0064 
919 58 3 1.008 0.03 8.82422 3.74552 3.58625 107.189 3.74552 3.58625 2 0 0 -0.00305165 0.0097431 -0.0349927 12.6074 12.2498 -10.4097 
7583 474 3 1.008 0.03 13.156 0.75532 2.87539 13.156 -48.427 -46.307 0 -1 -1 0.0101406 0.0069918 0.0075856 8.54684 5.31007 1.58159 
2875 180 3 1.008 0.03 11.5868 4.76568 1.92082 11.5868 53.948 -47.2615 0 1 -1 -0.00486866 -0.0135482 0.00487351 -2.20723 -13.6921 -1.68844 
913 58 1 16 -0.4 9.01582 3.32138 5.54546 107.381 3.32138 5.54546 2 0 0 0.00420357 0.000809352 0.000722846 13.9619 3.62218 1.93942 
920 58 3 1.008 0.03 9.88871 2.33918 3.95065 108.253 2.33918 3.95065 2 0 0 0.0311893 -0.0134871 -0.00699474 0.98411 -4.28494 -10.8775 
4965 311 2 12.01 0.11 10.0869 6.93348 4.36171 59.2693 -42.2489 53.5441 1 -1 1 -0.00702002 -0.000320318 0.00397656 41.3701 -0.0703161 -31.7535 
4971 311 3 1.008 0.03 10.6874 6.03542 3.96123 59.8698 -43.1469 53.1436 1 -1 1 0.0278574 -0.00396443 0.00877672 -23.7046 37.1383 2.35565 
4972 311 3 1.008 0.03 10.8295 7.53317 4.91808 60.0119 -41.6492 54.1004 1 -1 1 -0.0195387 0.0206389 0.0268778 -12.9343 -7.61072 3.95044 
4961 311 1 16 -0.4 9.43443 7.83311 3.43304 58.6168 -41.3492 52.6154 1 -1 1 0.00635869 0.00400928 -0.00261741 -14.1271 -53.3427 -16.4059 
7578 474 3 1.008 0.03 14.5832 2.69917 1.0639 14.5832 -46.4832 -48.1185 0 -1 -1 0.00423522 0.022228 0.0157108 -13.0983 21.6074 13.0659 
4973 311 3 1.008 0.03 9.33774 6.48671 4.94519 58.5201 -42.6956 54.1275 1 -1 1 0.0056864 0.0207656 0.000220561 -15.0927 -5.86525 26.5945 
924 58 3 1.008 0.03 10.6954 2.34923 6.35979 109.06 2.34923 6.35979 2 0 0 0.0293812 -0.00320515 0.013748 -6.35897 7.05324 -6.24331 
5134 321 3 1.008 0.03 14.4377 3.16266 6.09322 14.4377 52.345 6.09322 0 1 0 0.0266277 0.000930638 0.0164673 -5.19483 2.16923 -4.08701 
352 22 3 1.008 0.03 14.9048 6.1928 3.65827 64.0871 6.1928 151.205 1 0 3 0.00986039 -0.00234858 0.0152702 -19.7837 -4.84494 -6.94262 
5126 321 2 12.01 0.11 15.3039 2.54577 6.2879 15.3039 51.7281 6.2879 0 1 0 -0.00474671 -0.00403225 0.00480523 12.1107 -36.5771 -6.16311 
4956 310 3 1.008 0.03 13.7424 8.3772 3.52573 62.9248 8.3772 3.52573 1 0 0 0.00579597 -0.0112424 0.000334162 -9.92151 11.6161 5.81789 
923 58 3 1.008 0.03 10.2748 3.76481 7.1929 108.64 3.76481 7.1929 2 0 0 -0.0048837 -0.0157484 0.00856459 -4.67249 6.07925 1.15892 
917 58 2 12.01 0.11 10.3259 3.37554 6.18251 108.691 3.37554 6.18251 2 0 0 -0.00220459 0.00927454 -0.00241013 13.6545 -20.1811 -11.0394 
925 58 3 1.008 0.03 11.1782 3.88665 5.66396 109.543 3.88665 5.66396 2 0 0 -0.00307762 0.0203192 -0.013375 -24.8098 -3.51401 1.00799 
9639 604 6 16 -0.53 13.5053 7.73585 6.05768 13.5053 56.9182 6.05768 0 1 0 0.00471004 0.00333207 0.00642133 -14.0797 -4.35224 9.7324 
5122 321 1 16 -0.4 16.1708 2.40857 5.15039 16.1708 51.5909 5.15039 0 1 0 0.000261475 -0.00224682 -0.00199785 -3.26221 17.1123 0.570455 
7574 474 2 12.01 0.11 12.6275 1.38319 2.16548 12.6275 -47.7992 -47.0169 0 -1 -1 -0.00128096 0.00712838 0.00207526 -26.3328 -10.26 11.5514 
7584 474 3 1.008 0.03 12.6469 2.42821 2.46671 12.6469 -46.7541 -46.7156 0 -1 -1 0.0105943 0.0113013 0.00147171 9.52718 2.59315 -2.02853 
5136 321 3 1.008 0.03 15.762 2.86621 7.20301 15.762 52.0486 7.20301 0 1 0 0.00502133 -0.0175929 -0.00695608 10.7141 10.1915 5.56794 
2876 180 3 1.008 0.03 13.2394 4.79783 1.19861 13.2394 53.9802 -47.9837 0 1 -1 -0.00681651 0.0151745 -0.013168 10.6436 -17.2052 -13.3458 
351 22 3 1.008 0.03 15.8405 7.68185 3.8962 65.0229 7.68185 151.443 1 0 3 0.0168743 -0.00918107 0.000347878 -3.55497 0.121932 -1.29412 
5135 321 3 1.008 0.03 14.9842 1.50636 6.50365 14.9842 50.6887 6.50365 0 1 0 0.000320017 -0.0214104 0.00213218 -2.8466 13.9764 -1.16387 
9638 604 5 32.06 1.02 13.0074 8.23043 7.32592 13.0074 57.4128 7.32592 0 1 0 0.00161091 0.00354685 -0.000693887 20.8075 1.29425 -19.9436 
345 22 3 1.008 0.03 15.8001 4.56569 2.13185 64.9825 4.56569 149.679 1 0 3 -0.00743796 -0.0013344 0.00290625 13.968 5.3745 -11.1659 
340 22 2 12.01 0.14 16.7995 5.05513 2.10626 65.9819 5.05513 149.653 1 0 3 -0.00291583 -0.00492109 0.00472073 -2.48178 -1.39241 0.991444 
342 22 2 12.01 0.11 15.8777 6.61441 3.68885 65.0601 6.61441 151.236 1 0 3 -0.00106316 -0.000205645 -0.0023428 52.2326 -12.4111 23.4784 
338 22 1 16 -0.4 16.6806 6.40307 2.50544 65.863 6.40307 150.052 1 0 3 -0.00100126 -0.00331065 -0.00114259 -13.2296 9.84109 21.6052 
9650 604 8 19 -0.16 12.6241 4.96634 7.2595 12.6241 54.1487 7.2595 0 1 0 -0.00461084 -0.000633114 -0.00256635 -3.05374 -15.7114 -7.20302 
7582 474 3 1.008 0.03 11.5648 1.1256 2.37692 11.5648 -48.0567 -46.8054 0 -1 -1 0.0133203 0.0130916 -0.00473339 14.2752 -2.13314 -16.372 
7570 474 1 16 -0.4 13.084 1.13497 0.834996 13.084 -48.0474 -48.3474 0 -1 -1 -0.00100632 -0.00182732 -0.00285091 -10.0243 14.8177 19.3806 
350 22 3 1.008 0.03 16.3745 6.16834 4.60595 65.5568 6.16834 152.153 1 0 3 -0.00940142 -0.0136214 0.00856478 -10.6746 9.02782 -26.433 
2877 180 3 1.008 0.03 12.6927 5.96653 2.24853 12.6927 55.1489 -46.9338 0 1 -1 0.0416042 -0.014614 0.0226344 1.25797 9.48115 -0.447022 
4969 311 3 1.008 0.03 9.09849 7.85444 0.755582 58.2808 -41.3279 49.9379 1 -1 1 -0.0117818 -0.0136971 0.00246228 -21.1414 5.85124 14.3644 
7572 474 2 12.01 0.14 14.3393 1.76207 0.634321 14.3393 -47.4203 -48.548 0 -1 -1 0.000644665 -0.00154528 0.000512602 14.7269 -13.202 -53.2043 
7577 474 3 1.008 0.03 15.1435 1.16038 0.998279 15.1435 -48.022 -48.1841 0 -1 -1 0.00265266 -0.000399663 -0.012229 4.98009 -16.3296 7.44073 
4967 311 3 1.008 0.03 9.0517 6.13478 2.25522 58.2341 -43.0476 51.4376 1 -1 1 0.00375382 -0.0159356 0.00589872 -9.96285 -5.17772 5.39786 
2869 180 2 12.01 0.11 12.3584 5.34045 1.43204 12.3584 54.5228 -47.7503 0 1 -1 -0.00262593 -0.010423 -0.00511653 -2.44716 10.7942 36.8193 
2170 136 3 1.008 0.03 9.03004 5.74202 7.21855 107.395 5.74202 7.21855 2 0 0 0.0145331 0.000709655 0.00690072 45.2947 3.87616 -33.203 
2865 180 1 16 -0.4 11.8253 6.12033 0.423197 11.8253 55.3027 -48.7592 0 1 -1 -0.000844714 0.00161613 0.0072057 6.50608 30.0009 -5.29133 
5057 317 1 16 -0.4 24.9816 5.71238 1.86777 24.9816 104.077 1.86777 0 2 0 0.00841024 -0.00124085 -0.00415089 -9.40317 -1.24371 -27.9529 
5069 317 3 1.008 0.03 23.4813 7.01693 2.57262 23.4813 105.382 2.57262 0 2 0 -0.0173817 -0.00291334 -0.0125384 -9.78059 25.2889 -14.4637 
5133 321 3 1.008 0.03 18.2775 1.09227 1.2216 18.2775 50.2746 1.2216 0 1 0 0.0117115 0.0177626 0.0086134 -1.51789 15.3058 -25.6369 
5124 321 2 12.01 0.14 17.5748 2.20915 5.36135 17.5748 51.3915 5.36135 0 1 0 0.00692924 -0.00762481 -0.00534439 -12.2417 7.97394 18.824 
5123 321 2 12.01 0.14 17.9878 1.10621 4.43581 17.9878 50.2886 4.43581 0 1 0 -0.00219839 -0.00135687 -0.00480701 16.2809 -26.7047 20.9989 
5129 321 3 1.008 0.03 17.7781 1.87146 6.37501 17.7781 51.0538 6.37501 0 1 0 -0.0134019 -0.0220585 0.00814148 -2.85873 -0.768055 3.08142 
2596 163 2 12.01 0.14 23.8899 1.13172 3.12046 23.8899 1.13172 150.668 0 0 3 -0.00129331 -0.00373137 -0.000519616 19.4492 3.98837 -14.2899 
173 11 3 1.008 0.03 20.0417 3.93618 6.80961 118.406 53.1185 105.174 2 1 2 0.00925258 0.0103221 0.0160285 8.88757 -13.4197 -5.85079 
346 22 3 1.008 0.03 17.4392 4.42354 2.74379 66.6215 4.42354 150.291 1 0 3 0.00286501 0.00707923 0.0126863 -3.32827 12.424 3.09998 
339 22 2 12.01 0.14 17.4875 5.18068 0.731103 66.6698 5.18068 148.278 1 0 3 -0.0019178 -0.00287821 -0.00188833 -24.7871 8.92031 3.64613 
5121 321 1 16 -0.4 17.7865 1.48695 3.1318 17.7865 50.6693 3.1318 0 1 0 -0.00541101 -0.00229628 -0.00351521 -8.45096 27.0471 -20.4815 
5130 321 3 1.008 0.03 18.1931 3.11114 5.23979 18.1931 52.2935 5.23979 0 1 0 0.0077384 0.00343407 -0.0125233 -10.2192 -3.00008 -4.54818 
5063 317 3 1.008 0.03 23.5221 4.53655 1.00255 23.5221 102.901 1.00255 0 2 0 -0.00684043 0.00590113 0.0177766 2.71219 -6.16941 -3.01341 
5059 317 2 12.01 0.14 24.2698 5.25387 0.678034 24.2698 103.619 0.678034 0 2 0 0.00350349 -0.00530192 -0.00559208 -17.6562 38.7961 12.0791 
2593 163 1 16 -0.4 22.0256 2.3762 3.93683 22.0256 2.3762 151.484 0 0 3 0.000259793 -0.00280597 -0.000367378 -19.2898 23.028 5.98091 
2604 163 3 1.008 0.03 20.4729 3.49133 4.57169 20.4729 3.49133 152.119 0 0 3 0.00809324 0.0217351 -0.000269189 0.700471 2.70158 -15.3847 
2603 163 3 1.008 0.03 20.45 3.09931 2.79725 20.45 3.09931 150.344 0 0 3 0.00925177 0.00275306 0.00400378 -4.51321 3.96711 1.24061 
175 11 3 1.008 0.03 19.8382 8.43592 4.55074 118.203 57.6183 102.915 2 1 2 -0.00533986 -0.0227546 -0.00331645 22.633 -18.1045 -11.8121 
162 11 1 16 -0.4 21.1826 6.85217 4.8144 119.547 56.0345 103.179 2 1 2 -0.00456263 -0.00580564 0.00615957 1.08798 -22.0627 -17.368 
2605 163 3 1.008 0.03 21.5573 4.32973 3.45348 21.5573 4.32973 151.001 0 0 3 0.0220174 -0.0303262 0.00160418 0.996372 12.6695 -3.51058 
2597 163 2 12.01 0.11 21.0685 3.39827 3.64431 21.0685 3.39827 151.191 0 0 3 -0.00711967 -0.00210008 -0.00258738 -0.691549 -26.768 27.6588 
169 11 3 1.008 0.03 20.9208 7.91939 6.50524 119.285 57.1017 104.87 2 1 2 -0.00654549 -0.00426687 -0.00971708 -21.905 24.3667 10.6677 
164 11 2 12.01 0.14 21.6126 7.31014 6.01669 119.977 56.4925 104.381 2 1 2 0.000304657 -0.00406621 -0.00585037 31.9904 19.6907 13.543 
163 11 2 12.01 0.14 21.7886 6.16713 6.89441 120.153 55.3495 105.259 2 1 2 0.000455145 0.0124806 -0.00645127 74.1346 -14.8748 35.0328 
172 11 3 1.008 0.03 19.4851 5.40571 5.93428 117.85 54.5881 104.299 2 1 2 -0.00438626 -0.0359296 -0.000905715 1.19825 -10.1906 9.37815 
166 11 2 12.01 0.11 20.719 7.90344 4.06734 119.084 57.0858 102.432 2 1 2 -0.0064195 -0.00528743 0.00212284 -29.7846 46.106 -28.9775 
174 11 3 1.008 0.03 20.3478 7.48247 3.10437 118.713 56.6648 101.469 2 1 2 -0.0174929 -0.0105749 0.0267257 7.33214 9.93416 12.0789 
2599 163 3 1.008 0.03 22.2796 1.80744 1.97451 22.2796 1.80744 149.522 0 0 3 -0.010516 0.00792518 -0.00249852 -9.06546 6.41429 -7.9185 
2595 163 2 12.01 0.14 22.8202 2.20224 2.82116 22.8202 2.20224 150.368 0 0 3 -0.00463687 0.00229164 -0.0046635 28.2674 -49.0473 -8.28885 
2600 163 3 1.008 0.03 23.377 3.05186 2.5434 23.377 3.05186 150.09 0 0 3 -0.0078987 -0.033097 0.0256474 4.46345 24.5459 -3.50309 
9771 612 8 19 -0.16 23.9017 3.79759 6.63776 -25.2807 52.9799 6.63776 -1 1 0 0.000685386 -0.00229122 -0.000672334 -9.34734 -12.9157 -5.24002 
344 22 3 1.008 0.03 18.3446 5.84611 0.665845 67.5269 5.84611 148.213 1 0 3 -0.00188823 0.0282202 0.0205624 1.30194 3.22685 6.44756 
5067 317 3 1.008 0.03 23.3817 5.40707 3.20415 23.3817 103.772 3.20415 0 2 0 0.00797143 0.008471 -0.0247708 31.7653 29.7219 -11.5375 
168 11 3 1.008 0.03 22.3938 5.40099 6.44842 120.758 54.5833 104.813 2 1 2 -0.00638427 0.00549145 0.0113353 -9.50025 -14.9342 -12.2149 
2602 163 3 1.008 0.03 24.3634 1.29773 4.07279 24.3634 1.29773 151.62 0 0 3 -0.0105506 -0.00527939 -0.0109112 0.273945 -0.599921 9.98349 
165 11 2 12.01 0.11 19.7108 4.94379 6.91643 118.076 54.1261 105.281 2 1 2 0.00341747 -0.00457251 0.00503841 -12.6339 23.1621 -10.8669 
6694 419 2 12.01 0.11 20.8794 0.621622 7.10348 20.8794 0.621622 -42.0789 0 0 -1 0.00846546 -0.0014424 -0.00117364 15.6735 8.84324 34.425 
5128 321 3 1.008 0.03 19.0483 0.934983 4.58967 19.0483 50.1173 4.58967 0 1 0 -0.0151011 -0.00617482 0.0115988 4.12771 -1.09926 1.92225 
5125 321 2 12.01 0.11 18.5224 0.770392 2.18827 18.5224 49.9527 2.18827 0 1 0 -0.00550499 0.00281096 -0.000848943 42.0112 -52.4482 18.4957 
2601 163 3 1.008 0.03 24.7496 1.19875 2.37756 24.7496 1.19875 149.925 0 0 3 0.00293069 0.00804617 -0.0120377 -27.3365 0.82194 18.3183 
5061 317 2 12.01 0.11 24.1104 6.22802 2.85726 24.1104 104.593 2.85726 0 2 0 -0.00849554 -0.00496734 -0.00181693 -22.3604 -60.7713 24.6359 
5131 321 3 1.008 0.03 19.6849 0.768084 2.3351 19.6849 49.9504 2.3351 0 1 0 0.0256716 0.00915952 -0.00845026 -55.3085 2.43613 -4.91516 
170 11 3 1.008 0.03 22.5863 7.84766 5.98709 120.951 57.03 104.352 2 1 2 0.00304868 -0.0239618 -0.0385191 -14.1963 -3.56898 -9.65675 
5068 317 3 1.008 0.03 24.6816 6.51981 3.72521 24.6816 104.885 3.72521 0 2 0 -0.0178488 0.00816479 0.00620104 3.56869 4.49519 5.2304 
6704 419 3 1.008 0.03 20.7474 1.57338 6.57543 20.7474 1.57338 -42.6069 0 0 -1 0.0080272 0.00668308 0.0153909 4.74905 -1.55375 5.13168 
9768 612 7 12.01 0.35 24.5868 2.7253 7.0105 -24.5955 51.9076 7.0105 -1 1 0 -0.000964418 0.000403477 -0.000597208 40.8313 29.1779 -3.41843 
343 22 3 1.008 0.03 17.8292 4.2268 0.549896 67.0115 4.2268 148.097 1 0 3 0.00521142 -0.0031392 0.0367766 18.2497 -37.5628 -10.7644 
9770 612 8 19 -0.16 23.798 1.72928 7.27633 -25.3843 50.9116 7.27633 -1 1 0 0.00454131 -0.000308254 -0.000501213 -23.0635 -8.57742 9.89297 
3671 230 3 1.008 0.03 1.04841 9.72284 1.86628 50.2308 9.72284 51.0486 1 0 1 -0.00316388 0.027016 -0.00964567 31.5656 35.0119 -2.53849 
3667 230 2 12.01 0.14 2.11599 10.0552 1.60473 51.2983 10.0552 50.7871 1 0 1 -0.00286325 -0.00246525 -0.00499901 -41.073 -2.77232 8.2716 
3665 230 1 16 -0.4 2.85414 8.8571 1.56221 52.0365 8.8571 50.7446 1 0 1 -0.000567759 0.00364187 -0.00115378 -4.23878 -27.1091 -2.28782 
778 49 3 1.008 0.03 4.06372 10.0333 7.10481 102.428 108.398 56.2872 2 2 1 -0.00176235 -0.030654 0.0128732 -9.72715 -19.2778 26.4746 
880 55 3 1.008 0.03 4.12242 15.682 0.547127 -45.0599 -33.5004 0.547127 -1 -1 0 -0.00907835 -0.00482154 -0.00246571 10.7398 5.5078 -21.0842 
878 55 3 1.008 0.03 2.74285 15.0199 1.17137 -46.4395 -34.1625 1.17137 -1 -1 0 -0.00394462 0.020557 -0.0247795 17.8459 -14.1265 10.042 
3792 237 3 1.008 0.03 7.83488 8.74549 6.14785 7.83488 57.9278 6.14785 0 1 0 0.0273195 -0.00147841 0.00441187 2.43976 -1.97717 -5.6381 
3672 230 3 1.008 0.03 2.54794 10.6284 2.45224 51.7303 10.6284 51.6346 1 0 1 0.00884891 0.0165551 0.0304972 -7.71084 1.17626 -15.0363 
879 55 3 1.008 0.03 4.45587 14.2554 1.41286 -44.7265 -34.9269 1.41286 -1 -1 0 0.00118235 0.00982326 -0.0220002 -3.20483 -4.45389 15.5624 
870 55 2 12.01 0.11 3.7373 14.7281 0.76432 -45.445 -34.4542 0.76432 -1 -1 0 -0.00345319 -0.00389587 -2.20948e-06 -45.3439 -23.8018 -22.5665 
9872 619 6 16 -0.53 3.2719 15.7669 3.79989 3.2719 64.9492 3.79989 0 1 0 -0.00395076 -9.10744e-05 -0.00215737 42.0672 7.69709 83.6599 
4962 311 1 16 -0.4 7.77902 9.16299 1.62338 56.9614 -40.0194 50.8057 1 -1 1 -0.00251158 -0.00115674 0.0016067 -24.1226 18.7677 -23.2063 
9866 619 7 12.01 0.35 3.27991 12.9071 5.56471 3.27991 62.0895 5.56471 0 1 0 0.00273228 -0.00757229 0.00604283 11.2054 -9.24475 -6.93002 
9871 619 6 16 -0.53 3.27007 16.6159 6.19621 3.27007 65.7982 6.19621 0 1 0 -0.00592741 0.006932 -0.00453002 -16.2986 12.6373 3.93549 
3777 237 1 16 -0.4 7.891 13.1386 5.05864 7.891 62.3209 5.05864 0 1 0 0.00506365 -0.00174194 0.00224869 0.98994 -4.6707 -16.5604 
3781 237 2 12.01 0.11 7.63399 14.3573 4.32138 7.63399 63.5397 4.32138 0 1 0 0.00243472 0.00455905 -0.000222129 -20.5838 -35.7583 12.8655 
3787 237 3 1.008 0.03 6.68706 14.2106 3.78968 6.68706 63.393 3.78968 0 1 0 0.00175774 0.01312 -0.0195306 0.914716 4.53196 3.74532 
9862 619 4 14.01 -0.66 4.93945 14.8814 5.60368 4.93945 64.0638 5.60368 0 1 0 0.00729437 0.00653085 0.0023572 1.53309 -35.7727 34.1008 
9870 619 5 32.06 1.02 3.98647 16.0168 5.11108 3.98647 65.1992 5.11108 0 1 0 0.000739562 -0.00226995 0.000459064 -33.3287 1.32708 -80.8669 
9867 619 8 19 -0.16 3.71002 12.7892 4.34066 3.71002 61.9715 4.34066 0 1 0 0.00238756 -0.00516035 0.00384088 7.28237 7.84378 -18.5373 
9868 619 8 19 -0.16 2.18985 13.614 5.52271 2.18985 62.7963 5.52271 0 1 0 0.00568826 0.00479276 0.00382518 -19.4173 8.98366 -1.502 
3779 237 2 12.01 0.14 8.22655 12.0537 4.14108 8.22655 61.236 4.14108 0 1 0 0.00414808 0.00319543 -0.00260676 9.37182 -3.24315 0.608293 
9863 619 5 32.06 1.02 4.54802 13.6818 6.62607 4.54802 62.8641 6.62607 0 1 0 -0.000766449 -0.00109894 0.00313017 -21.7606 42.1051 -42.8785 
3783 237 3 1.008 0.03 7.99564 12.2432 3.04038 7.99564 61.4256 3.04038 0 1 0 0.0043798 -0.0233842 0.00956936 7.84922 -6.30607 31.192 
3785 237 3 1.008 0.03 6.51272 10.7128 4.42321 6.51272 59.8951 4.42321 0 1 0 0.00266869 0.010698 -0.00848306 11.0395 -3.50581 -9.79303 
3780 237 2 12.01 0.14 7.59162 10.7496 4.65866 7.59162 59.932 4.65866 0 1 0 -0.00250353 0.00308362 -0.00861002 -26.2401 38.4225 -6.21415 
9869 619 8 19 -0.16 2.94068 11.6803 5.85047 2.94068 60.8627 5.85047 0 1 0 -0.000957406 -0.00723637 -0.00285359 -2.56821 -11.6112 23.5 
10466 677 9 24.305 2 7.63473 12.6072 6.8989 7.63473 61.7895 6.8989 0 1 0 -0.000651614 0.00121442 -0.0030366 9.6461 -2.29928 16.0667 
9864 619 6 16 -0.53 5.5924 12.7118 6.72116 5.5924 61.8941 6.72116 0 1 0 0.0044725 -0.00174551 0.00134248 36.0583 -17.4867 -4.32359 
3778 237 1 16 -0.4 7.61372 10.8242 6.06706 7.61372 60.0066 6.06706 0 1 0 -0.00289573 -0.0048605 0.00231852 7.91082 -0.996096 16.6147 
3788 237 3 1.008 0.03 7.50613 15.168 5.04288 7.50613 64.3504 5.04288 0 1 0 -0.0206971 -0.000206792 -0.000959603 7.20465 6.84987 -10.3549 
3789 237 3 1.008 0.03 8.33656 14.4901 3.52546 8.33656 63.6725 3.52546 0 1 0 -0.00622124 -0.00679503 -0.00845269 17.537 15.0952 -2.34677 
3786 237 3 1.008 0.03 8.13531 9.94198 4.22233 8.13531 59.1243 4.22233 0 1 0 -0.00935366 0.00447603 0.00350215 2.80452 -18.7097 -3.66283 
3791 237 3 1.008 0.03 6.1598 9.28965 6.332 6.1598 58.472 6.332 0 1 0 -0.0129011 -0.0195731 0.0211752 15.1211 5.45544 0.771769 
3782 237 2 12.01 0.11 7.2208 9.54086 6.55841 7.2208 58.7232 6.55841 0 1 0 -0.00743521 0.00739652 -0.00521132 -17.5561 -15.9645 -8.32355 
4976 311 3 1.008 0.03 7.75664 10.9316 0.721301 56.939 -38.2508 49.9036 1 -1 1 0.0222486 -0.00660468 0.0188657 5.84752 5.52355 0.490644 
9823 616 8 19 -0.16 9.52784 15.7926 0.800706 58.7102 15.7926 0.800706 1 0 0 0.00435952 0.00595578 -0.00190752 41.8173 -12.1223 17.6264 
4955 310 3 1.008 0.03 12.8695 9.85793 4.20153 62.0518 9.85793 4.20153 1 0 0 -0.00262454 0.0108746 0.011049 -7.95283 -3.43964 4.08024 
4947 310 2 12.01 0.14 12.3744 9.88708 1.66183 61.5567 9.88708 1.66183 1 0 0 0.000182426 -0.00333282 0.00759426 -53.3074 28.7827 55.1476 
9640 604 6 16 -0.53 11.661 8.73205 7.40125 11.661 57.9144 7.40125 0 1 0 -0.000245143 -0.00657613 0.00500482 -5.52583 9.01344 -11.4076 
4951 310 3 1.008 0.03 11.9958 8.87223 1.67201 61.1781 8.87223 1.67201 1 0 0 -0.000103953 0.0213276 0.00548189 -2.2417 -6.3193 -2.59335 
3784 237 3 1.008 0.03 9.30636 11.8174 4.29692 9.30636 60.9997 4.29692 0 1 0 0.00196395 0.0121381 -0.0157882 -12.984 14.1411 -12.9213 
4949 310 2 12.01 0.11 13.6723 9.48031 3.58318 62.8546 9.48031 3.58318 1 0 0 -0.000753327 0.00196745 0.00335261 -21.4127 -25.6853 -22.5967 
4957 310 3 1.008 0.03 14.5512 9.82955 3.98822 63.7335 9.82955 3.98822 1 0 0 -0.00800111 -0.0118607 0.00610092 34.2425 9.47411 21.1474 
3654 229 2 12.01 0.11 11.0057 12.4438 7.01638 11.0057 61.6262 7.01638 0 1 0 0.00636694 0.000467737 -0.00647608 -0.041842 -7.67396 -35.2696 
10454 665 9 24.305 2 14.775 11.4808 1.57488 63.9574 11.4808 1.57488 1 0 0 0.000804101 -0.00353189 -0.00271213 -7.55181 -17.4115 -27.382 
9817 616 4 14.01 -0.66 12.9128 15.085 2.32169 62.0951 15.085 2.32169 1 0 0 -0.00436637 0.00539492 -0.00665986 2.06287 -30.8244 14.9598 
9825 616 5 32.06 1.02 12.805 13.7188 3.13248 61.9873 13.7188 3.13248 1 0 0 0.00299332 -0.00368292 -0.00115125 38.4532 -23.8503 10.3898 
9827 616 6 16 -0.53 11.5421 13.0579 3.34546 60.7245 13.0579 3.34546 1 0 0 0.00622204 0.00433267 -0.00142247 -2.99993 13.1289 5.4061 
9828 616 7 12.01 0.35 13.3915 14.2336 4.81746 62.5739 14.2336 4.81746 1 0 0 -0.00722607 -0.00665885 0.00330968 6.56999 -12.9227 -49.2446 
9826 616 6 16 -0.53 13.8713 12.788 2.71924 63.0537 12.788 2.71924 1 0 0 0.00426731 -0.00440838 0.00292176 -26.9465 31.2899 4.83805 
9830 616 8 19 -0.16 13.9949 13.3195 5.52286 63.1773 13.3195 5.52286 1 0 0 0.00105744 0.00447745 0.000325018 0.227513 -21.4138 4.95989 
9818 616 5 32.06 1.02 11.8045 16.1494 2.18912 60.9868 16.1494 2.18912 1 0 0 -0.00316636 5.77889e-05 8.64278e-05 7.86545 15.4262 -20.3917 
4945 310 1 16 -0.4 13.6334 9.97279 2.27055 62.8158 9.97279 2.27055 1 0 0 -0.00105539 -0.000538448 0.00721485 27.6759 27.2543 -16.2611 
10149 638 6 16 -0.53 16.32 11.441 2.77698 16.32 11.441 51.9593 0 0 1 0.00473999 -0.0055414 0.00466235 -28.739 -8.64343 -5.72112 
9819 616 6 16 -0.53 11.0602 16.3999 3.40305 60.2425 16.3999 3.40305 1 0 0 -0.00154488 -0.00122091 0.00471625 -5.84175 -3.78964 -8.78293 
9831 616 8 19 -0.16 14.2553 15.1466 4.61823 63.4377 15.1466 4.61823 1 0 0 0.00218258 -0.000543187 0.00161026 35.015 29.7986 1.77839 
9829 616 8 19 -0.16 12.5137 14.7756 5.5457 61.6961 14.7756 5.5457 1 0 0 0.00423336 0.00542219 5.07389e-05 -42.3824 17.5088 27.0894 
9644 604 8 19 -0.16 13.5626 10.7121 6.65474 13.5626 59.8945 6.65474 0 1 0 0.00575753 0.00296434 0.00123322 12.7073 -9.90318 10.204 
7804 488 3 1.008 0.03 15.1024 14.6839 1.07997 64.2848 14.6839 1.07997 1 0 0 0.00271286 0.0122702 0.0291717 -8.07868 10.9802 3.34672 
9821 616 7 12.01 0.35 10.7355 15.1845 1.0555 59.9178 15.1845 1.0555 1 0 0 0.00537406 0.00325425 -0.00581388 -93.8116 24.8699 -2.96293 
9824 616 8 19 -0.16 10.3973 13.9786 1.47002 59.5796 13.9786 1.47002 1 0 0 -0.00193737 0.00306385 0.00550883 3.48551 0.712126 3.76566 
3662 229 3 1.008 0.03 11.1836 13.2779 6.38288 11.1836 62.4603 6.38288 0 1 0 8.75839e-05 -0.00652598 -0.0020484 -8.87075 16.1438 -8.74824 
10154 638 8 19 -0.16 16.2415 13.1436 5.12679 16.2415 13.1436 54.3091 0 0 1 0.0013901 0.00227239 -0.00291738 24.1452 6.26015 -11.0838 
3664 229 3 1.008 0.03 11.2365 11.6062 6.30574 11.2365 60.7885 6.30574 0 1 0 0.000951319 -0.0134154 0.0184944 0.48383 10.341 21.1091 
7805 488 3 1.008 0.03 16.7674 14.1944 1.33878 65.9497 14.1944 1.33878 1 0 0 0.000761259 -0.0276375 0.00283698 10.7091 4.01179 16.2765 
825 52 3 1.008 0.03 16.7349 16.1579 2.94388 16.7349 65.3403 -46.2385 0 1 -1 -0.00163659 0.0233723 -0.00437515 10.0211 -37.6195 -5.88613 
4952 310 3 1.008 0.03 11.6319 10.5301 2.29993 60.8142 10.5301 2.29993 1 0 0 -0.00228116 0.0181901 -0.00150977 32.9311 -31.8005 -29.9369 
9642 604 8 19 -0.16 15.3363 9.60364 7.16283 15.3363 58.786 7.16283 0 1 0 0.000260511 -0.00702262 0.00377664 -19.5226 -3.74068 1.463 
9858 618 7 12.01 0.35 9.42966 16.5954 7.33162 58.612 65.7778 7.33162 1 1 0 -0.00280869 -0.00237547 0.0032592 3.86914 14.9706 -28.9594 
9860 618 8 19 -0.16 10.5121 15.8509 7.26264 59.6945 65.0333 7.26264 1 1 0 -0.00126408 0.000454508 -0.00116564 -3.52784 -19.0665 15.8126 
7797 488 2 12.01 0.11 15.9489 14.1849 0.659747 65.1313 14.1849 0.659747 1 0 0 0.00338181 -0.00106105 0.00573921 3.69874 -35.2183 -45.4113 
3650 229 1 16 -0.4 9.6032 12.3489 7.3953 9.6032 61.5312 7.3953 0 1 0 0.00673952 -0.00305694 0.00318309 24.834 -21.705 24.8526 
3235 203 2 12.01 0.14 22.6184 11.7672 7.03531 71.8008 60.9496 105.4 1 1 2 -0.000461662 -0.00776355 0.00295194 -7.88003 18.2764 6.82675 
176 11 3 1.008 0.03 21.4899 8.70249 3.86824 119.855 57.8848 102.233 2 1 2 0.00718308 0.024189 -0.00931292 -12.5514 -24.4726 3.36273 
8999 563 3 1.008 0.03 24.0181 11.3738 1.5674 73.2004 60.5562 99.9321 1 1 2 0.00783618 -0.0172282 0.0029239 15.8632 -38.789 22.9272 
10152 638 8 19 -0.16 17.5153 14.076 3.64847 17.5153 14.076 52.8308 0 0 1 0.00242973 -0.00311178 0.00438497 -5.98335 -11.056 4.77979 
7515 470 3 1.008 0.03 24.2525 14.1962 1.20553 73.4348 -34.9862 -47.9768 1 -1 -1 -0.00499392 0.0127968 -0.0243572 -0.671762 -2.52626 4.36082 
8995 563 2 12.01 0.14 24.4087 10.4022 2.06989 73.5911 59.5846 100.435 1 1 2 0.00928954 0.00562806 -0.0103518 18.4963 23.4954 7.60489 
9000 563 3 1.008 0.03 23.6165 9.64411 2.11735 72.7989 58.8265 100.482 1 1 2 0.0142604 0.0168276 -0.0161599 -2.12342 8.57576 1.30113 
3240 203 3 1.008 0.03 22.6619 11.5369 5.93726 71.8442 60.7193 104.302 1 1 2 -0.0106473 -0.00427008 -0.00563136 8.80266 9.36451 23.0288 
10159 638 8 19 -0.16 20.5131 13.7795 1.59602 20.5131 13.7795 50.7784 0 0 1 -0.0033558 -0.00574397 0.00068304 4.89209 -27.3122 10.0229 
10151 638 7 12.01 0.35 17.4353 13.0488 4.50077 17.4353 13.0488 53.6831 0 0 1 0.00468153 0.00137823 -0.00609078 -42.7518 2.70805 -13.5915 