ITEM: TIMESTEP
4350000
ITEM: NUMBER OF ATOMS
10479
ITEM: BOX BOUNDS pp pp pp
4.0882558190751794e-01 4.9591174418091420e+01
4.0882558190751794e-01 4.9591174418091420e+01
4.0882558190751794e-01 4.9591174418091420e+01
ITEM: ATOMS id mol type mass q x y z xu yu zu ix iy iz vx vy vz fx fy fz 
2930 184 1 16 -0.4 4.81776 5.14074 3.81314 -44.3646 54.3231 3.81314 -1 1 0 0.000532156 -0.00367202 0.000623617 0.678896 -10.1511 17.1154 
2937 184 3 1.008 0.03 6.05555 6.09139 5.11127 -43.1268 55.2737 5.11127 -1 1 0 0.0162706 0.0176804 0.00971683 -4.7706 0.940616 -0.484244 
2932 184 2 12.01 0.14 5.19606 5.41882 5.17331 -43.9863 54.6012 5.17331 -1 1 0 0.00144707 0.00789928 -0.00806676 24.3124 13.7314 -13.011 
2934 184 2 12.01 0.11 3.75022 4.20257 3.78044 -45.4321 53.3849 3.78044 -1 1 0 -0.00045345 0.000241716 -0.00638509 20.2052 -7.4487 -18.0833 
2935 184 3 1.008 0.03 3.4277 6.52928 5.22055 -45.7546 55.7116 5.22055 -1 1 0 -0.0065237 0.0290994 -2.48997e-05 -10.268 12.5589 -0.181777 
8919 558 3 1.008 0.03 5.30943 0.715871 6.67495 5.30943 49.8982 6.67495 0 1 0 0.0230175 0.0102559 0.00622841 -15.29 -0.528612 18.1248 
2938 184 3 1.008 0.03 5.58561 4.58278 5.73894 -43.5967 53.7651 5.73894 -1 1 0 -0.00838106 -0.0199646 -0.0104067 0.21398 -10.4653 -3.21225 
2943 184 3 1.008 0.03 3.53525 3.95034 2.7449 -45.6471 53.1327 2.7449 -1 1 0 -0.0157358 0.00988247 -0.0111076 7.3745 -7.55971 -0.66002 
2931 184 2 12.01 0.14 4.09099 6.09202 5.94175 -45.0914 55.2744 5.94175 -1 1 0 0.00600288 0.000381311 0.00554138 -8.72688 -14.0188 5.80851 
2929 184 1 16 -0.4 3.45899 5.0724 6.65441 -45.7234 54.2547 6.65441 -1 1 0 0.00166873 -0.00180645 -0.00346738 -62.5688 23.2393 32.5724 
2936 184 3 1.008 0.03 4.35851 6.79552 6.71693 -44.8238 55.9779 6.71693 -1 1 0 2.06268e-05 -0.0129243 0.00683987 16.0223 4.81025 -3.35471 
2942 184 3 1.008 0.03 2.8459 4.72257 4.01697 -46.3365 53.9049 4.01697 -1 1 0 0.0104616 -0.0206967 -0.0137752 -13.0361 -4.73333 18.9858 
2944 184 3 1.008 0.03 4.01128 3.27654 4.35631 -45.1711 52.4589 4.35631 -1 1 0 -0.0259419 0.0210143 -0.0190835 -14.3746 16.2398 -7.49634 
197 13 2 12.01 0.11 4.36225 7.18446 1.35451 102.727 -41.9979 1.35451 2 -1 0 -0.00361946 -0.00537653 0.0048274 -1.37229 10.4724 32.5941 
5963 373 3 1.008 0.03 2.12212 1.86238 5.4705 -47.0602 100.227 5.4705 -1 2 0 0.00369626 0.0127242 0.00275518 -0.725424 1.11282 -3.8691 
6683 418 3 1.008 0.03 7.44982 5.82358 2.03216 105.815 -92.5411 51.2145 2 -2 1 0.0109343 -0.0183294 0.00321917 -11.1408 -3.64488 1.01196 
205 13 3 1.008 0.03 3.47657 6.79204 1.87956 101.841 -42.3903 1.87956 2 -1 0 0.00412649 0.0115487 -0.00277084 3.92135 5.7874 -6.83285 
8915 558 2 12.01 0.14 6.0792 0.483198 5.9886 6.0792 49.6655 5.9886 0 1 0 -0.00501299 0.00116066 0.000685991 18.1873 -25.8728 -9.53778 
7271 455 3 1.008 0.03 2.80882 8.4589 6.71855 51.9912 8.4589 55.9009 1 0 1 0.0099042 0.00941943 0.00880137 -6.99914 0.78516 16.2296 
3125 196 2 12.01 0.11 0.503075 5.45518 2.52966 49.6854 -43.7272 51.712 1 -1 1 0.00736154 0.00193084 0.00591659 8.60506 7.77705 4.47312 
7280 455 3 1.008 0.03 7.05679 8.53073 5.36837 56.2391 8.53073 54.5507 1 0 1 0.0174413 -0.023203 0.0358539 -22.8363 2.07255 -24.5303 
7120 445 3 1.008 0.03 0.451598 3.17299 6.28094 49.6339 -144.374 -141.266 1 -3 -3 -0.0170105 -0.0104075 0.014563 5.8168 -3.66012 13.3542 
5965 373 3 1.008 0.03 2.4162 0.431845 4.40674 -46.7662 98.7965 4.40674 -1 2 0 -0.0171543 -0.0267693 -0.0360185 15.668 11.3412 -12.3864 
8920 558 3 1.008 0.03 6.17406 1.36889 5.40782 6.17406 50.5512 5.40782 0 1 0 -0.024048 -0.0262017 0.00815616 9.39079 18.2784 -5.8325 
6677 418 2 12.01 0.11 8.28042 5.58316 2.67995 106.645 -92.7815 51.8623 2 -2 1 -0.00219344 -0.00537687 -0.00298998 -17.0407 38.8428 15.9435 
6685 418 3 1.008 0.03 7.95234 5.30953 3.66488 106.317 -93.0552 52.8472 2 -2 1 0.0143623 0.0184208 0.0336728 -10.9004 -2.84973 7.38907 
8263 517 3 1.008 0.03 7.89944 5.13425 6.26058 106.264 5.13425 6.26058 2 0 0 0.00682354 6.79659e-05 -0.0101735 7.17004 10.7955 -3.22867 
3131 196 3 1.008 0.03 1.55252 5.5383 2.14133 50.7349 -43.6441 51.3237 1 -1 1 0.0186969 0.00577875 -0.0294613 -23.5742 -2.18502 0.350024 
2097 132 1 16 -0.4 4.8023 1.69891 1.50183 -44.38 -96.6658 50.6842 -1 -2 1 -0.00530305 0.00455046 -0.00102493 -1.53082 0.450808 17.37 
7278 455 3 1.008 0.03 5.80232 8.27945 3.98544 54.9847 8.27945 53.1678 1 0 1 0.0135464 0.0127433 0.00301166 8.24878 -18.1815 -3.3285 
2099 132 2 12.01 0.14 3.77026 1.67158 0.538863 -45.4121 -96.6931 49.7212 -1 -2 1 -0.0035989 0.00512445 4.07071e-05 6.63564 11.0764 -39.7515 
2103 132 3 1.008 0.03 3.08839 2.53976 0.69319 -46.094 -95.8249 49.8755 -1 -2 1 0.0139177 -0.010045 -0.027874 13.3659 -11.0943 -0.148782 
5957 373 2 12.01 0.11 2.21297 0.780619 5.40492 -46.9694 99.1453 5.40492 -1 2 0 -0.00436008 0.00584074 -0.00082867 5.57861 -11.6459 10.9417 
5964 373 3 1.008 0.03 3.01211 0.451404 6.09724 -46.1702 98.8161 6.09724 -1 2 0 0.010179 -0.0081568 -0.01882 -7.35392 5.69716 -7.56148 
2107 132 3 1.008 0.03 6.81596 1.40518 1.78191 -42.3664 -96.9595 50.9643 -1 -2 1 -0.0025758 -0.0109654 -0.0186549 10.1836 -4.25409 21.671 
204 13 3 1.008 0.03 4.3955 8.29784 1.44447 102.76 -40.8845 1.44447 2 -1 0 -0.00338992 0.0030033 0.00589687 0.779561 -18.9845 1.37322 
6680 418 3 1.008 0.03 8.41856 7.73213 1.21936 106.783 -90.6326 50.4017 2 -2 1 0.0127828 0.02155 0.0184916 16.0554 1.34679 5.94523 
200 13 3 1.008 0.03 4.04824 4.70761 0.585577 102.413 -44.4747 0.585577 2 -1 0 0.00163279 -0.0272142 0.0163429 -8.3135 22.0252 -1.46547 
2101 132 2 12.01 0.11 6.1187 1.55565 1.00507 -43.0637 -96.809 50.1874 -1 -2 1 -0.000508095 0.00212307 -0.0063435 -5.07949 13.9011 -23.6982 
3128 196 3 1.008 0.03 0.788327 3.13236 1.42998 49.9707 -46.05 50.6123 1 -1 1 0.00342829 -0.00910932 0.0146863 10.6787 0.49687 5.27092 
2940 184 3 1.008 0.03 1.4826 6.05963 6.95484 -47.6997 55.242 6.95484 -1 1 0 -0.000176048 0.0258838 -0.00736392 -7.12024 0.581933 -18.4687 
203 13 3 1.008 0.03 5.22158 6.72583 1.83655 103.586 -42.4565 1.83655 2 -1 0 -0.00323434 0.0119932 -0.0163858 3.7089 6.55191 4.39578 
2109 132 3 1.008 0.03 6.45147 2.50175 0.530988 -42.7309 -95.8629 49.7133 -1 -2 1 0.00195171 -0.00568049 -0.00711818 -6.37666 -13.8795 -1.7715 
3521 221 1 16 -0.4 13.8978 1.68802 4.84406 13.8978 50.8704 54.0264 0 1 1 0.00536023 -0.00194106 0.000952968 24.1938 -5.63156 -41.5812 
1263 79 3 1.008 0.03 9.06921 0.979957 1.48658 107.434 -48.2024 99.8513 2 -1 2 -0.00279138 -0.0242253 -0.00985398 16.0116 -1.83971 6.99476 
8271 517 3 1.008 0.03 11.8762 2.61059 6.1113 110.241 2.61059 6.1113 2 0 0 0.00741901 0.0232884 0.0249488 19.0826 6.77413 0.0846042 
8264 517 3 1.008 0.03 9.10245 6.54791 6.41896 107.467 6.54791 6.41896 2 0 0 0.0178193 -0.00945835 -0.0112155 -14.3175 -13.0014 2.26369 
3523 221 2 12.01 0.14 15.2182 1.47273 5.36547 15.2182 50.6551 54.5478 0 1 1 -0.00274129 0.00476282 0.00375811 -39.1768 41.0475 15.34 
8262 517 2 12.01 0.11 10.919 2.43435 5.6841 109.284 2.43435 5.6841 2 0 0 0.000496622 -0.0028401 -0.00167562 -51.9188 -8.92709 63.4578 
8258 517 1 16 -0.4 9.91624 3.25354 6.37653 108.281 3.25354 6.37653 2 0 0 -0.00272006 -0.00128569 0.00216471 0.374046 -25.8917 -12.8919 
6673 418 1 16 -0.4 9.05081 6.76376 2.85811 107.416 -91.6009 52.0405 2 -2 1 0.0045074 0.00402029 0.00217182 11.0032 -14.9769 13.0963 
6676 418 2 12.01 0.14 10.4151 8.53584 1.79368 108.78 -89.8289 50.976 2 -2 1 0.00217623 -0.00264078 0.00871417 7.46533 10.606 -20.9634 
3280 205 3 1.008 0.03 13.8247 5.05898 3.68056 13.8247 54.2413 102.045 0 1 2 0.00474733 0.0128332 -0.0253082 6.4626 15.5997 -32.028 
6674 418 1 16 -0.4 11.797 8.08469 1.85258 110.162 -90.28 51.0349 2 -2 1 0.00097798 -0.00302152 0.00458284 -15.6811 7.08839 -6.48376 
3528 221 3 1.008 0.03 15.7458 2.40207 5.16565 15.7458 51.5844 54.348 0 1 1 0.0143075 -0.0307421 -0.00420104 3.61529 0.571306 -2.72081 
6675 418 2 12.01 0.14 9.38046 7.37226 1.64982 107.745 -90.9924 50.8322 2 -2 1 0.000958292 0.00120924 -0.00612775 8.90698 6.14568 -51.4347 
8159 510 3 1.008 0.03 11.9518 7.26857 4.69714 11.9518 56.4509 4.69714 0 1 0 -0.000713194 0.00125058 0.0182912 -3.36799 5.39095 5.18769 
8150 510 2 12.01 0.11 11.6669 8.19662 5.21368 11.6669 57.379 5.21368 0 1 0 -0.00984814 0.000931342 0.00502325 52.848 1.35291 3.83983 
8160 510 3 1.008 0.03 10.7039 8.46653 4.91252 10.7039 57.6489 4.91252 0 1 0 -0.00127419 0.018134 0.00391766 -28.2727 8.14977 -8.29326 
6684 418 3 1.008 0.03 8.71827 4.72527 2.31497 107.083 -93.6394 51.4973 2 -2 1 0.0031709 -0.00972222 0.00135484 29.4755 -26.2495 -19.0563 
3524 221 2 12.01 0.14 15.0824 1.36697 6.90081 15.0824 50.5493 56.0832 0 1 1 -0.000351414 -0.000798594 -0.000253956 -1.5639 22.5973 40.5192 
3532 221 3 1.008 0.03 14.4505 2.49779 2.85954 14.4505 51.6801 52.0419 0 1 1 0.0342384 0.00475004 -0.0107324 0.00230305 0.392389 2.76162 
8259 517 2 12.01 0.14 8.83177 5.50652 6.71321 107.196 5.50652 6.71321 2 0 0 0.000294199 0.00195543 0.00509867 4.69098 -13.605 18.2793 
3278 205 3 1.008 0.03 14.7949 6.43512 3.0348 14.7949 55.6175 101.399 0 1 2 0.00408554 0.0191308 0.00751513 -7.41417 -10.3272 -4.73428 
8270 517 3 1.008 0.03 10.8755 2.56878 4.64846 109.24 2.56878 4.64846 2 0 0 0.0122854 0.0111655 -0.0240494 3.68866 2.20242 -31.0062 
3529 221 3 1.008 0.03 15.9897 1.87601 7.3303 15.9897 51.0584 56.5127 0 1 1 0.0153754 0.00660961 0.000502171 -16.3618 -17.3778 -7.56068 
8265 517 3 1.008 0.03 10.2569 4.82386 5.10724 108.622 4.82386 5.10724 2 0 0 -0.0291849 0.0347808 -0.000146066 -11.0076 2.85734 14.6756 
8266 517 3 1.008 0.03 10.9053 4.91592 6.72721 109.27 4.91592 6.72721 2 0 0 -0.0251484 -0.0100699 -0.00642259 2.52485 5.94031 0.0132641 
8260 517 2 12.01 0.14 10.0091 4.6416 6.17889 108.374 4.6416 6.17889 2 0 0 -0.00418494 0.00100708 0.00421829 26.3266 8.23627 -5.65309 
3274 205 3 1.008 0.03 12.3656 4.05182 1.77989 12.3656 53.2342 100.145 0 1 2 -0.000461743 -0.00871863 0.00717464 5.27311 10.1155 2.33178 
3266 205 1 16 -0.4 14.1453 5.16058 1.55294 14.1453 54.3429 99.9176 0 1 2 0.00530113 0.00823541 -0.00331901 -6.28168 0.689791 7.41204 
8272 517 3 1.008 0.03 10.6485 1.38024 5.97016 109.013 1.38024 5.97016 2 0 0 -0.00902751 0.00763023 -0.00632218 8.30099 19.5916 -13.9945 
3279 205 3 1.008 0.03 13.0723 6.45235 2.91785 13.0723 55.6347 101.283 0 1 2 -0.0154998 0.014917 0.0178083 5.60318 -9.59085 -12.3607 
3270 205 2 12.01 0.11 13.9346 5.77962 2.80106 13.9346 54.962 101.166 0 1 2 -0.000594217 -0.000711599 -0.0107661 8.06815 4.48714 56 
8146 510 1 16 -0.4 11.8248 8.06456 6.60639 11.8248 57.2469 6.60639 0 1 0 -0.00528692 -0.00605332 -0.000270987 -11.902 -4.02526 11.1975 
3268 205 2 12.01 0.14 12.9066 4.70078 1.0725 12.9066 53.8831 99.4372 0 1 2 0.00203343 0.0110286 0.00214626 -27.1973 14.9922 -17.2589 
430 27 3 1.008 0.03 15.8273 7.50589 1.08579 15.8273 56.6882 50.2681 0 1 1 0.0147586 -0.000219398 -0.00295775 39.1096 13.4565 -7.67083 
6679 418 3 1.008 0.03 9.78385 6.67061 0.865492 108.149 -91.6941 50.0478 2 -2 1 -0.00782537 -0.000419707 0.000529805 -8.91256 9.37256 22.0382 
4686 293 3 1.008 0.03 16.7315 2.54605 2.23512 -32.4508 51.7284 51.4175 -1 1 1 0.00706777 0.00452998 0.00182554 -10.2176 -17.9822 19.0094 
3527 221 3 1.008 0.03 15.756 0.72591 4.87325 15.756 49.9083 54.0556 0 1 1 0.00438384 0.00214807 -0.000389702 15.1345 -29.3359 -7.93622 
6849 429 1 16 -0.4 16.3173 6.24779 5.00224 -32.8651 6.24779 201.732 -1 0 4 -0.00160662 -0.000536663 -0.00428773 -7.42214 -6.0347 24.8479 
6851 429 2 12.01 0.14 16.4451 6.38403 6.43791 -32.7372 6.38403 203.167 -1 0 4 -0.000175157 0.00251606 0.0016395 -18.5871 17.1266 -49.9754 
6858 429 3 1.008 0.03 16.633 4.30673 6.66294 -32.5493 4.30673 203.392 -1 0 4 -0.00293051 0.00560144 -0.0205831 -12.3993 -25.3701 -8.0618 
6856 429 3 1.008 0.03 15.4404 6.5943 6.72132 -33.7419 6.5943 203.451 -1 0 4 0.00420347 -0.0192759 0.00393891 -14.1003 4.32586 12.5005 
3531 221 3 1.008 0.03 12.8389 1.68805 3.1322 12.8389 50.8704 52.3146 0 1 1 -0.0291435 0.0275113 0.0237903 10.0742 12.3664 -7.11053 
3533 221 3 1.008 0.03 14.1769 0.713208 3.01406 14.1769 49.8956 52.1964 0 1 1 0.0162586 -0.0171527 -0.000434285 14.6623 -6.76377 -7.57516 
4688 293 3 1.008 0.03 16.1875 2.88565 0.687385 -32.9949 52.068 49.8697 -1 1 1 0.00855277 -0.0056431 0.00445825 9.95703 2.39145 -7.63755 
3273 205 3 1.008 0.03 12.2486 5.61023 0.794855 12.2486 54.7926 99.1596 0 1 2 -0.00173182 0.00834511 0.00626879 21.2854 -38.5265 9.03777 
422 27 2 12.01 0.11 16.7726 8.10009 0.808023 16.7726 57.2824 49.9904 0 1 1 -0.00156065 -0.00155557 -0.00468791 -27.0378 5.63189 10.5558 
3525 221 2 12.01 0.11 13.9163 1.69198 3.36555 13.9163 50.8743 52.5479 0 1 1 0.00282803 -0.00254611 0.00455001 -38.5196 -11.0487 50.5071 
3530 221 3 1.008 0.03 14.243 2.02153 7.34741 14.243 51.2039 56.5298 0 1 1 -0.00954744 -0.0129649 0.00999536 26.6022 -25.9123 -22.881 
432 27 3 1.008 0.03 17.6064 7.52124 0.441575 17.6064 56.7036 49.6239 0 1 1 0.00261943 -0.00144048 0.00935584 -0.894788 -15.2121 0.279463 
4904 307 3 1.008 0.03 24.6423 6.81767 4.47746 24.6423 6.81767 4.47746 0 0 0 0.0117352 -0.0325554 -0.0124767 -1.53885 -5.47149 5.07208 
8064 504 3 1.008 0.03 20.6873 6.509 1.52559 119.052 55.6913 99.8903 2 1 2 0.00609715 -0.0095769 -0.00793736 -6.29702 -4.71958 3.7746 
810 51 3 1.008 0.03 22.1211 1.02842 5.51213 169.668 1.02842 -43.6702 3 0 -1 0.00318561 0.0160603 0.0143647 -5.01097 -1.62448 0.637285 
8790 550 2 12.01 0.11 24.3189 3.28774 4.52902 -74.0458 200.017 53.7114 -2 4 1 -0.0028351 -0.00510492 0.00326343 -22.7629 -15.8648 11.0214 
8786 550 1 16 -0.4 24.1187 4.27542 3.57273 -74.246 201.005 52.7551 -2 4 1 0.00505953 0.0053959 0.00306409 3.34354 1.41284 -16.2268 
806 51 2 12.01 0.11 20.1185 1.49788 4.15841 167.666 1.49788 -45.0239 3 0 -1 -0.00408044 -0.00492793 0.00597668 0.221526 27.3684 -5.97497 
816 51 3 1.008 0.03 20.7184 2.42058 4.49239 168.265 2.42058 -44.69 3 0 -1 0.0112596 -0.00486294 -0.00580966 -24.1799 -28.2227 -15.6701 
8793 550 3 1.008 0.03 24.9546 3.10674 2.09532 -73.4101 199.836 51.2777 -2 4 1 -0.00166986 -0.00970138 0.0120737 23.2282 16.0383 7.30572 
814 51 3 1.008 0.03 19.5506 1.67452 3.22344 167.098 1.67452 -45.9589 3 0 -1 -0.011471 -0.0236569 -0.0128284 9.9768 7.10139 10.1744 
4900 307 2 12.01 0.14 24.8942 7.3475 6.53213 24.8942 7.3475 6.53213 0 0 0 0.000594912 0.00131829 0.00155656 -10.7502 -39.8524 24.6325 
6860 429 3 1.008 0.03 18.161 5.48795 4.70842 -31.0213 5.48795 201.438 -1 0 4 0.000376652 0.0176774 -0.00202519 1.38014 6.48278 -20.6196 
6859 429 3 1.008 0.03 17.9981 7.27572 4.40045 -31.1843 7.27572 201.13 -1 0 4 -0.0199849 -0.022621 0.0167297 2.7175 -2.86766 2.19947 
6853 429 2 12.01 0.11 17.528 6.29426 4.30213 -31.6544 6.29426 201.032 -1 0 4 0.000820776 -0.00963517 -0.00615149 -1.46557 2.07418 10.9995 
8789 550 2 12.01 0.11 22.4449 3.8227 1.0448 -75.9198 200.552 50.2271 -2 4 1 0.00407499 -0.0024757 0.00292749 -9.63461 59.5611 -44.3482 
4903 307 3 1.008 0.03 23.5649 5.86777 5.44118 23.5649 5.86777 5.44118 0 0 0 -0.00128729 0.00292095 -0.033987 -3.1527 -3.19612 10.745 
4899 307 2 12.01 0.14 23.9982 6.85512 5.36491 23.9982 6.85512 5.36491 0 0 0 0.00393167 -0.00211905 -0.00228384 17.6949 5.14534 -16.1476 
6855 429 3 1.008 0.03 17.0364 7.26424 6.58 -32.1459 7.26424 203.309 -1 0 4 -0.0183007 -0.0116357 -0.0353385 6.12904 11.7777 13.7903 
6861 429 3 1.008 0.03 17.2341 6.18201 3.26856 -31.9483 6.18201 199.998 -1 0 4 -0.0104512 0.0152972 -0.0188588 8.76511 -7.95514 -8.37608 
4907 307 3 1.008 0.03 21.6453 6.87468 3.82422 21.6453 6.87468 3.82422 0 0 0 0.0177944 -0.00484271 -0.0199449 10.9535 7.19223 6.28713 
4908 307 3 1.008 0.03 21.2852 6.91807 5.47238 21.2852 6.91807 5.47238 0 0 0 -0.0143774 0.0107157 0.0238497 -2.1187 7.23188 11.379 
4897 307 1 16 -0.4 23.0976 7.84935 4.99233 23.0976 7.84935 4.99233 0 0 0 0.00597348 0.00255076 -0.00136253 -1.44478 33.4759 2.58205 
4901 307 2 12.01 0.11 21.7592 7.52546 4.70998 21.7592 7.52546 4.70998 0 0 0 0.00264054 0.00408492 -0.00114942 -12.2645 -27.6751 -25.1051 
8795 550 3 1.008 0.03 22.2233 4.4002 1.96948 -76.1414 201.13 51.1518 -2 4 1 -0.0312521 0.0161189 -0.000638549 -9.71346 -18.5423 -8.55704 
6852 429 2 12.01 0.14 16.9421 5.18116 7.1516 -32.2403 5.18116 203.881 -1 0 4 -0.00221869 0.000946256 -0.002081 34.2734 2.71662 4.33891 
4674 293 1 16 -0.4 18.0712 1.84053 0.912468 -31.1111 51.0229 50.0948 -1 1 1 0.00261592 0.000365676 -0.000258446 -9.95906 -0.591561 1.99146 
8792 550 3 1.008 0.03 23.9759 6.01613 1.77954 -74.3888 202.746 50.9619 -2 4 1 0.00528554 -0.00647576 0.023061 -11.4367 16.5141 14.8265 
815 51 3 1.008 0.03 19.345 1.27287 4.90316 166.892 1.27287 -44.2792 3 0 -1 0.0246924 0.0225611 0.0153205 6.56882 -0.505805 1.03493 
4678 293 2 12.01 0.11 17.1004 2.8138 1.28668 -32.082 51.9962 50.469 -1 1 1 -0.0102183 -0.00634101 -0.00255201 3.07997 11.9755 11.6568 
4687 293 3 1.008 0.03 17.5033 3.77902 1.62819 -31.6791 52.9614 50.8105 -1 1 1 -0.0132219 -0.0223783 -0.0194051 1.706 -1.34855 -18.7949 
8050 504 1 16 -0.4 20.2451 8.43947 0.897081 118.61 57.6218 99.2618 2 1 2 -0.000794252 -0.00182503 0.00170663 5.8211 5.48581 -1.57403 
4909 307 3 1.008 0.03 21.1776 8.41265 4.44251 21.1776 8.41265 4.44251 0 0 0 -0.00338676 -0.0146198 0.0252997 0.361686 -0.484121 8.93586 
8797 550 3 1.008 0.03 22.6176 2.79057 1.13853 -75.7471 199.52 50.3209 -2 4 1 -0.0191856 -0.00958462 -0.00937295 1.35072 -21.4727 15.6794 
8787 550 2 12.01 0.14 24.429 5.13847 1.40633 -73.9357 201.868 50.5887 -2 4 1 -0.00589648 0.00702243 -0.00187575 40.6061 -43.5687 -42.9987 
8054 504 2 12.01 0.11 21.0997 7.2885 0.905329 119.464 56.4708 99.27 2 1 2 -0.00189397 -0.00876225 -0.00535052 -54.4209 15.313 -4.98881 
6850 429 1 16 -0.4 18.3418 5.31196 6.98897 -30.8405 5.31196 203.718 -1 0 4 -0.00299152 -0.00304563 -0.00139926 1.14159 6.40393 14.774 
8063 504 3 1.008 0.03 22.0279 7.54291 1.35367 120.393 56.7253 99.7184 2 1 2 -0.00462722 -0.00984159 -0.00710372 26.5864 0.312839 -8.34585 
8798 550 3 1.008 0.03 23.7268 3.53728 5.43063 -74.6379 200.267 54.613 -2 4 1 0.0129425 -0.00273315 -0.0121252 -1.01415 -9.4116 -13.6642 
8799 550 3 1.008 0.03 24.1118 2.24069 4.14746 -74.2529 198.97 53.3298 -2 4 1 0.0105195 0.0123866 -0.0203072 4.68668 26.44 12.0714 
8785 550 1 16 -0.4 23.5793 4.4505 0.428368 -74.7854 201.18 49.6107 -2 4 1 -0.00443096 0.000822603 -0.00155575 5.81291 5.43715 31.4312 
4679 293 3 1.008 0.03 20.3453 0.742425 0.451831 -28.8371 49.9248 49.6342 -1 1 1 -0.00879596 0.021712 0.0311837 -5.10302 6.62623 -0.424893 
9062 567 2 12.01 0.11 6.7802 10.4072 1.13735 -42.4022 10.4072 148.684 -1 0 3 0.00391425 0.00285142 0.0021073 17.8863 0.121141 25.6174 
9070 567 3 1.008 0.03 6.0306 11.0018 0.65823 -43.1517 11.0018 148.205 -1 0 3 0.0154594 0.00395713 -0.0115977 -8.25447 7.18063 -4.06889 
7351 460 3 1.008 0.03 2.65922 13.5067 0.990808 2.65922 -134.04 197.72 0 -3 4 0.00141945 -0.0377344 0.0134299 -4.53646 -4.70564 -1.83593 
8893 556 3 1.008 0.03 4.88952 14.594 6.71655 103.254 14.594 -42.4658 2 0 -1 0.0122045 -0.00220755 0.00712412 -15.351 -11.1538 0.61042 
7274 455 3 1.008 0.03 3.8691 10.424 4.82996 53.0515 10.424 54.0123 1 0 1 0.0107603 0.0262808 0.0207325 13.6524 -14.132 4.10855 
9072 567 3 1.008 0.03 6.56828 10.3493 2.23025 -42.6141 10.3493 149.777 -1 0 3 -0.0107267 0.00799613 0.000376647 0.0861825 -2.59683 -19.2132 
7355 460 3 1.008 0.03 2.15003 13.5513 3.23831 2.15003 -133.996 199.968 0 -3 4 -0.0116138 -0.00426584 0.0047225 -18.0446 -7.99692 8.19789 
9067 567 3 1.008 0.03 8.52055 10.2036 5.67227 -40.6618 10.2036 153.219 -1 0 3 -0.0133154 -0.045077 0.0260155 -16.2871 -23.5697 12.3501 
7349 460 2 12.01 0.11 1.12208 13.1394 3.08819 1.12208 -134.408 199.818 0 -3 4 0.00193121 0.00404594 -0.00499871 63.1343 22.3289 -46.6668 
7357 460 3 1.008 0.03 0.887516 12.4609 3.84436 0.887516 -135.086 200.574 0 -3 4 0.00775476 0.0207531 -0.00805122 -14.5451 -9.07977 29.2764 
8883 556 2 12.01 0.14 5.30409 13.112 4.29099 103.669 13.112 -44.8914 2 0 -1 0.00837041 0.000413808 -0.00192386 -17.9744 -38.6057 19.2661 
8888 556 3 1.008 0.03 4.37628 12.5991 3.91279 102.741 12.5991 -45.2696 2 0 -1 0.00262867 0.011119 -0.00809854 14.7926 13.3759 16.9467 
8885 556 2 12.01 0.11 4.5231 13.5653 6.50484 102.888 13.5653 -42.6775 2 0 -1 -0.00731743 0.000650215 -0.00986933 35.3484 27.2033 -9.20337 
8881 556 1 16 -0.4 5.56928 13.0268 5.70919 103.934 13.0268 -43.4732 2 0 -1 0.000406035 -0.00206991 0.000653961 -16.0509 -5.56644 -13.1616 
8891 556 3 1.008 0.03 3.57502 13.5801 6.02653 101.94 13.5801 -43.1558 2 0 -1 0.00575225 -0.0223623 -0.0218202 -17.0521 1.77984 -10.5033 
7266 455 1 16 -0.4 5.04289 8.83908 5.83333 54.2252 8.83908 55.0157 1 0 1 0.00671208 0.00780657 0.00248227 -0.608443 34.101 -53.0036 
7270 455 2 12.01 0.11 6.1159 8.86728 4.83015 55.2982 8.86728 54.0125 1 0 1 -0.00266888 0.00229142 0.00205781 -7.01091 -27.1897 56.215 
7279 455 3 1.008 0.03 6.3002 9.78263 4.35834 55.4825 9.78263 53.5407 1 0 1 0.000398319 -0.00518128 0.000275885 2.85623 32.4959 1.11585 
8882 556 1 16 -0.4 4.21769 15.2657 3.97317 102.582 15.2657 -45.2092 2 0 -1 -0.000855246 0.00457513 0.00669912 28.0222 -1.23629 -26.338 
8884 556 2 12.01 0.14 5.42286 14.4948 3.73769 103.788 14.4948 -45.4447 2 0 -1 0.00457478 -0.00361121 0.00514327 -8.30697 1.79099 8.34008 
8889 556 3 1.008 0.03 6.34529 14.9265 4.10873 104.71 14.9265 -45.0736 2 0 -1 -0.0174887 0.0130753 -0.015703 -3.62593 8.26187 5.8382 
8887 556 3 1.008 0.03 6.07538 12.4534 3.9143 104.44 12.4534 -45.2681 2 0 -1 0.00601231 -0.0129609 0.0270194 6.92438 3.81526 -8.1636 
8890 556 3 1.008 0.03 5.59583 14.3106 2.69554 103.961 14.3106 -46.4868 2 0 -1 0.00455881 -0.0143776 0.0192689 -2.9965 6.28923 -15.2522 
9057 567 1 16 -0.4 8.56481 10.8338 3.74845 -40.6175 10.8338 151.295 -1 0 3 0.00140246 0.0016283 0.00131274 15.1252 8.66341 15.2093 
7268 455 2 12.01 0.14 3.82744 9.37679 5.19998 53.0098 9.37679 54.3823 1 0 1 0.00624678 -0.00567637 0.00874391 21.6208 7.74412 -15.4975 
7273 455 3 1.008 0.03 3.60486 8.77238 4.28401 52.7872 8.77238 53.4664 1 0 1 -0.00276638 0.00151265 -0.00580694 -4.11468 6.57673 20.5331 
8896 556 3 1.008 0.03 4.46046 16.3168 2.09094 102.825 16.3168 -47.0914 2 0 -1 -0.0015241 0.0348875 -0.0201755 0.955061 -14.7896 -6.5311 
8886 556 2 12.01 0.11 4.3431 16.4378 3.15646 102.708 16.4378 -46.0259 2 0 -1 -0.00179529 0.00406433 -0.00131464 -42.605 10.3744 8.96927 
9789 614 6 16 -0.53 7.6111 16.3291 2.43339 7.6111 16.3291 2.43339 0 0 0 0.00186209 -0.00272579 0.00377915 -11.9234 -23.5792 5.67682 
7345 460 1 16 -0.4 1.25133 12.3467 1.92634 1.25133 -135.2 198.656 0 -3 4 -0.00161454 -0.0020491 -0.00474558 -15.5967 -14.4706 -10.8172 
7267 455 2 12.01 0.14 2.72871 9.41499 6.22747 51.9111 9.41499 55.4098 1 0 1 0.00210812 -0.00351167 -0.000624911 18.473 6.94145 26.4955 
9065 567 3 1.008 0.03 7.42908 12.7654 2.02093 -41.7533 12.7654 149.568 -1 0 3 0.0181084 0.00535478 -0.00776144 34.6921 -43.078 -11.4123 
9060 567 2 12.01 0.14 8.34342 12.0978 1.72481 -40.8389 12.0978 149.272 -1 0 3 0.00121037 -0.0020959 0.0044406 -42.0459 44.6745 -13.6748 
7356 460 3 1.008 0.03 0.506488 14.0006 2.93219 0.506488 -133.546 199.662 0 -3 4 0.00319596 -0.00363152 -4.44635e-05 -18.6815 3.51834 5.62094 
7353 460 3 1.008 0.03 0.530963 14.6039 0.553018 0.530963 -132.943 197.282 0 -3 4 0.00438235 -0.00389256 -0.00338367 2.80941 -24.1684 -17.2747 
7272 455 3 1.008 0.03 1.77416 9.4702 5.82939 50.9565 9.4702 55.0117 1 0 1 0.00498027 0.0209635 -0.00931219 -30.8951 -2.13338 -23.3387 
7265 455 1 16 -0.4 2.83358 10.5924 7.05702 52.0159 10.5924 56.2394 1 0 1 -0.000755738 -0.00689017 0.0057596 -17.6683 -27.5115 19.6953 
4763 298 3 1.008 0.03 0.494989 16.5861 2.45008 49.6773 16.5861 2.45008 1 0 0 -0.00950412 -0.00530831 -0.00496554 -21.0022 0.836678 7.49963 
7347 460 2 12.01 0.14 1.78969 12.8888 0.716125 1.78969 -134.658 197.446 0 -3 4 -0.000998105 -0.0118479 0.0059816 32.5501 -16.0007 31.6392 
9058 567 1 16 -0.4 8.07702 10.9337 0.921739 -41.1053 10.9337 148.469 -1 0 3 -0.00562823 -0.00680334 0.00448429 0.596868 9.61602 12.3573 
2444 153 3 1.008 0.03 8.20102 14.3239 5.25318 106.566 63.5063 5.25318 2 1 0 0.0238931 -0.0185603 -0.0229667 17.9976 -12.8303 -4.48613 
5933 371 3 1.008 0.03 2.13937 16.4896 5.89901 2.13937 114.854 104.264 0 2 2 -0.0222498 0.00841139 -0.0157759 -14.2321 8.82563 7.80863 
8892 556 3 1.008 0.03 4.40449 13.0475 7.42115 102.769 13.0475 -41.7612 2 0 -1 -0.00341352 0.0135178 -0.00942 1.71874 -10.742 18.4192 
9071 567 3 1.008 0.03 6.80514 9.41986 0.705324 -42.3772 9.41986 148.252 -1 0 3 0.0101778 0.0407749 0.0260316 -8.05699 -7.88774 -1.76385 
9066 567 3 1.008 0.03 8.76639 12.8098 0.9778 -40.416 12.8098 148.525 -1 0 3 0.00492672 0.0105178 0.0279142 8.78495 -12.0056 19.273 
8153 510 3 1.008 0.03 10.2584 9.31934 7.0508 10.2584 58.5017 7.0508 0 1 0 0.00826733 0.00385314 0.00222096 13.3591 3.23846 8.95763 
424 27 3 1.008 0.03 16.4283 10.5996 4.34739 16.4283 59.7819 53.5297 0 1 1 0.0280196 -0.00990271 0.031259 -16.8469 6.24914 12.0732 
6682 418 3 1.008 0.03 10.1246 9.20149 2.57394 108.489 -89.1632 51.7563 2 -2 1 -0.0223602 -0.00440368 -0.00674102 2.59903 0.637299 20.0418 
6686 418 3 1.008 0.03 13.0027 9.68302 2.48196 111.367 -88.6817 51.6643 2 -2 1 -0.0264707 -0.00117112 -0.0105596 -7.74468 -2.5104 -2.87605 
6678 418 2 12.01 0.11 12.7597 9.11165 1.57674 111.124 -89.253 50.7591 2 -2 1 0.00310315 0.00856911 -0.00227595 -34.6518 29.8472 11.4381 
6687 418 3 1.008 0.03 13.6906 8.75485 1.26482 112.055 -89.6098 50.4472 2 -2 1 0.0139828 -0.00102822 -0.0108446 22.6065 -17.8824 -12.9963 
8158 510 3 1.008 0.03 12.421 8.9664 4.94601 12.421 58.1488 4.94601 0 1 0 0.0103397 -0.000939971 -0.0226528 -15.027 -6.87463 -6.01339 
9069 567 3 1.008 0.03 8.81664 11.8233 5.68257 -40.3657 11.8233 153.23 -1 0 3 -0.00486383 -0.00588462 0.000962014 5.78993 -0.47164 -16.7707 
9061 567 2 12.01 0.11 9.03453 10.9098 5.10424 -40.1478 10.9098 152.651 -1 0 3 0.00817792 0.00644115 0.00286061 -24.7953 16.0105 -10.1424 
9718 609 8 19 -0.16 16.4105 16.1604 7.12761 16.4105 -33.022 7.12761 0 -1 0 0.00205012 0.0072886 0.000756717 -14.2282 -17.1714 7.98844 
9068 567 3 1.008 0.03 10.0299 10.6085 5.20372 -39.1524 10.6085 152.751 -1 0 3 -0.023743 -0.00146806 -0.0115665 31.2701 1.55951 -1.33748 
2443 153 3 1.008 0.03 9.29089 15.6623 5.31561 107.656 64.8446 5.31561 2 1 0 0.00296472 -0.0212593 -0.00925019 -0.314298 1.92958 -7.91203 
417 27 1 16 -0.4 16.5376 12.1418 3.03825 16.5376 61.3241 52.2206 0 1 1 -0.00264695 0.00170647 0.00272528 -18.7122 17.7933 28.7393 
9063 567 3 1.008 0.03 9.21321 12.8065 3.53915 -39.9691 12.8065 151.086 -1 0 3 0.0119361 0.00786295 0.00858068 8.69363 -38.1026 -22.3441 
2439 153 3 1.008 0.03 11.455 15.5348 5.32813 109.82 64.7171 5.32813 2 1 0 -0.0229898 0.00126888 0.0166077 4.3157 18.645 -14.4188 
2438 153 2 12.01 0.11 13.5719 12.4604 3.88258 111.937 61.6427 3.88258 2 1 0 -0.00506232 0.00572954 -0.004872 10.1955 29.33 -5.16568 
2434 153 1 16 -0.4 12.8977 13.643 4.2415 111.262 62.8254 4.2415 2 1 0 0.002293 0.00328486 0.00447986 -14.9222 0.672894 -15.3918 
2446 153 3 1.008 0.03 13.6895 12.4408 2.8016 112.054 61.6231 2.8016 2 1 0 0.00780335 -0.00885709 -0.0231247 3.89934 -1.34573 -1.14991 
420 27 2 12.01 0.14 16.2842 9.77043 2.42411 16.2842 58.9528 51.6065 0 1 1 7.73741e-05 -0.00500826 -0.00106963 9.91323 18.9602 -19.3697 
426 27 3 1.008 0.03 15.8328 10.311 1.59066 15.8328 59.4934 50.773 0 1 1 -0.00433575 0.00292088 0.00353445 -0.628186 -1.1981 -0.0907746 
9064 567 3 1.008 0.03 10.2659 11.6117 2.59478 -38.9165 11.6117 150.142 -1 0 3 -0.0270472 -0.00144436 0.00542342 -12.8936 -5.98859 14.9581 
2435 153 2 12.01 0.14 11.4663 14.658 5.91919 109.831 63.8404 5.91919 2 1 0 -0.00384741 0.00245756 0.0133054 11.7484 -5.65807 15.5627 
9059 567 2 12.01 0.14 9.23193 11.8086 2.95865 -39.9504 11.8086 150.506 -1 0 3 -0.00491897 0.00437947 -0.00184627 -7.59297 53.2066 -3.72752 
9792 614 8 19 -0.16 10.4024 16.5281 1.24761 10.4024 16.5281 1.24761 0 0 0 -0.00410514 0.00223144 -0.00401025 -10.5449 3.71489 -11.258 
381 24 3 1.008 0.03 14.5218 16.6583 0.617392 162.069 -32.5241 0.617392 3 -1 0 -0.0193953 -0.00239173 -0.0110816 1.32351 -3.84567 1.49473 
380 24 3 1.008 0.03 15.1429 15.1451 1.34216 162.69 -34.0372 1.34216 3 -1 0 0.0382865 0.0319568 0.0284369 0.421184 -12.9637 -16.5116 
373 24 2 12.01 0.11 15.4106 16.1252 0.970943 162.958 -33.0571 0.970943 3 -1 0 0.00629327 0.00504639 0.00446155 -6.60757 38.0689 67.966 
369 24 1 16 -0.4 15.9323 16.7214 2.21239 163.479 -32.4609 2.21239 3 -1 0 0.000748082 -0.00140199 0.000631396 -7.93428 -3.09889 -24.0939 
2440 153 3 1.008 0.03 11.3725 15.0311 6.95751 109.737 64.2134 6.95751 2 1 0 0.0149334 -0.0305762 0.0382451 6.34185 -10.3779 -7.78346 
2436 153 2 12.01 0.14 12.7689 13.8814 5.61788 111.134 63.0637 5.61788 2 1 0 -0.000632877 -0.00386974 -0.00714818 -3.69774 51.0405 -7.31459 
2433 153 1 16 -0.4 10.3594 13.898 5.57006 108.724 63.0803 5.57006 2 1 0 -0.00510518 0.00152541 0.00231643 -22.9506 -13.4372 -8.12191 
2448 153 3 1.008 0.03 13.0253 11.6189 4.15901 111.39 60.8013 4.15901 2 1 0 -0.00509457 0.0185615 0.00467706 -16.7119 -27.6014 10.8106 
2441 153 3 1.008 0.03 13.517 14.7019 5.7418 111.882 63.8843 5.7418 2 1 0 0.00915196 0.0211612 0.00813923 1.26248 -27.8355 14.7207 
2447 153 3 1.008 0.03 14.5334 12.4558 4.37118 112.898 61.6382 4.37118 2 1 0 0.00750672 -0.0231935 0.00572734 6.83985 -3.64738 1.77832 
2442 153 3 1.008 0.03 12.8532 13.0123 6.23053 111.218 62.1947 6.23053 2 1 0 0.0148658 -0.0305445 -0.0235553 9.03294 -11.197 12.473 
7305 457 3 1.008 0.03 15.8123 10.7903 6.58945 15.8123 109.155 6.58945 0 2 0 -0.0113342 -0.0205808 0.00419828 -5.27684 11.781 26.9415 
429 27 3 1.008 0.03 16.79 12.3737 0.99133 16.79 61.556 50.1737 0 1 1 0.015876 -0.00710476 -6.6862e-05 0.138529 7.67343 17.1736 
2445 153 3 1.008 0.03 8.90284 14.7762 6.7195 107.268 63.9586 6.7195 2 1 0 0.0017082 -0.00323858 0.00792975 2.89543 0.233691 10.8336 
2437 153 2 12.01 0.11 9.16046 14.6602 5.68125 107.525 63.8425 5.68125 2 1 0 -0.0034844 0.00309769 -0.00304663 -19.0156 6.26562 8.2785 
8148 510 2 12.01 0.14 11.3057 9.15598 7.38042 11.3057 58.3383 7.38042 0 1 0 0.000320124 0.00245952 0.00154096 -11.2996 -34.3532 -14.2658 
8622 539 3 1.008 0.03 12.2712 13.5904 1.20834 110.636 13.5904 1.20834 2 0 0 -0.0185494 -0.0212021 -0.00783159 -13.3306 4.1905 -9.20833 