ITEM: TIMESTEP
950000
ITEM: NUMBER OF ATOMS
10479
ITEM: BOX BOUNDS pp pp pp
4.0882558190751794e-01 4.9591174418091420e+01
4.0882558190751794e-01 4.9591174418091420e+01
4.0882558190751794e-01 4.9591174418091420e+01
ITEM: ATOMS id mol type mass q x y z xu yu zu ix iy iz vx vy vz fx fy fz 
1186 75 1 16 -0.4 7.36902 6.49981 4.07164 -41.8133 6.49981 4.07164 -1 0 0 -0.00205708 0.00629989 0.00278791 8.27854 -3.01573 10.226 
1190 75 2 12.01 0.11 6.21763 6.68626 3.3024 -42.9647 6.68626 3.3024 -1 0 0 -0.00441975 -0.00434036 0.0114877 6.94084 -6.50227 -33.2899 
1200 75 3 1.008 0.03 5.25818 6.48783 3.71868 -43.9242 6.48783 3.71868 -1 0 0 -0.00745508 0.00947364 -0.00115889 -9.26558 -3.95406 19.7274 
1199 75 3 1.008 0.03 6.26172 6.03362 2.40926 -42.9206 6.03362 2.40926 -1 0 0 0.0114344 0.0106463 0.00842874 1.96098 12.8348 4.52204 
1569 99 1 16 -0.4 3.46664 2.93127 4.63567 52.649 -46.2511 53.818 1 -1 1 -0.00543001 0.00338821 0.00317747 -10.8816 21.5417 -10.7256 
1571 99 2 12.01 0.14 4.39173 2.41049 3.63855 53.5741 -46.7719 52.8209 1 -1 1 -0.00415023 0.00486994 0.0030373 25.3405 -34.879 40.7611 
1576 99 3 1.008 0.03 5.42695 2.41706 4.09888 54.6093 -46.7653 53.2812 1 -1 1 -0.00109662 -0.0229398 0.011007 -25.8737 1.21404 -14.7191 
1575 99 3 1.008 0.03 4.46457 2.92588 2.71232 53.6469 -46.2565 51.8947 1 -1 1 0.0159331 -0.00416833 -0.0111748 -4.95294 22.6804 -10.0194 
1188 75 2 12.01 0.14 7.64091 5.16749 4.45471 -41.5414 5.16749 4.45471 -1 0 0 0.000367017 -0.00446918 0.000730474 14.1696 6.91365 20.4098 
1193 75 3 1.008 0.03 6.81102 4.70735 4.86272 -42.3713 4.70735 4.86272 -1 0 0 -0.0202522 0.0177622 0.0214894 -35.7167 -17.5185 5.45359 
1581 99 3 1.008 0.03 4.31628 4.77019 5.10395 53.4986 -44.4122 54.2863 1 -1 1 0.00755363 0.0285839 -0.0399929 13.4659 4.3413 4.79293 
1572 99 2 12.01 0.14 4.03306 0.938986 3.20165 53.2154 -48.2434 52.384 1 -1 1 -0.00363187 0.00180639 -0.00217208 33.1571 27.471 21.4266 
1578 99 3 1.008 0.03 4.68616 0.69814 2.34917 53.8685 -48.4842 51.5315 1 -1 1 0.0228754 -0.0202041 0.0271022 -7.16835 -2.80673 2.95422 
1055 66 3 1.008 0.03 2.67191 8.04979 4.03257 -46.5104 -90.3149 151.58 -1 -2 3 0.0156464 0.0100578 -0.00665642 3.90139 -10.7376 3.63057 
1054 66 3 1.008 0.03 0.910276 8.28848 3.80913 -48.2721 -90.0762 151.356 -1 -2 3 -0.00956438 -0.00535519 -0.00476745 3.30256 -0.640642 -1.50252 
1577 99 3 1.008 0.03 3.03141 0.960532 2.9084 52.2138 -48.2218 52.0908 1 -1 1 -0.00752461 -0.00345305 -0.0206116 -29.4756 -4.04602 -15.0699 
1579 99 3 1.008 0.03 3.31638 4.78202 3.71418 52.4987 -44.4003 52.8965 1 -1 1 -0.0167497 -0.017584 -0.00947516 -2.25942 2.75595 -3.19636 
1573 99 2 12.01 0.11 3.39354 4.39657 4.72496 52.5759 -44.7858 53.9073 1 -1 1 0.00652573 -0.00753006 -0.00423346 -26.1903 -4.36627 4.64198 
1198 75 3 1.008 0.03 6.238 7.74282 3.04027 -42.9444 7.74282 3.04027 -1 0 0 -0.00273464 0.00936299 0.0364134 -5.32255 -1.64226 -8.65614 
1580 99 3 1.008 0.03 2.56109 4.93592 5.33071 51.7434 -44.2464 54.5131 1 -1 1 0.0297009 0.00379048 0.0122829 29.7193 -36.3196 -20.6725 
4373 274 2 12.01 0.11 1.32182 0.82489 6.34256 50.5042 99.1896 -42.8398 1 2 -1 -0.00812223 0.00418317 -0.000955913 -15.1235 -3.78104 -7.67966 
1044 66 2 12.01 0.14 2.02255 7.55699 1.44069 -47.1598 -90.8077 148.988 -1 -2 3 -0.00264078 0.000807805 -0.000798684 -23.8561 -20.3274 8.07377 
1050 66 3 1.008 0.03 2.67645 6.78324 1.79963 -46.5059 -91.5815 149.347 -1 -2 3 -0.0191686 0.0041726 0.00781491 13.0931 -2.63482 3.82722 
1049 66 3 1.008 0.03 1.03749 7.15376 1.76341 -48.1449 -91.2109 149.31 -1 -2 3 0.0130268 -0.000912851 0.00709159 7.44006 6.52677 -17.264 
4380 274 3 1.008 0.03 1.33075 1.8956 6.2554 50.5131 100.26 -42.9269 1 2 -1 0.0261153 -0.00517636 -0.00743264 0.436132 7.30542 -9.7506 
1185 75 1 16 -0.4 7.46892 3.56608 2.61988 -41.7134 3.56608 2.61988 -1 0 0 -0.0150372 -0.00103148 0.000656892 -4.49883 -14.4198 6.46777 
9442 591 1 16 -0.4 5.3451 5.51072 7.25391 5.3451 54.6931 7.25391 0 1 0 0.0031058 0.00385783 0.00343797 45.3695 44.9101 4.73902 
1824 114 3 1.008 0.03 2.53987 3.32172 0.84791 100.905 52.5041 99.2126 2 1 2 0.0163032 -0.0205299 -0.00495845 -2.89716 -0.225294 7.1464 
9447 591 3 1.008 0.03 5.59399 3.235 6.28985 5.59399 52.4173 6.28985 0 1 0 -0.00542753 -0.0143584 -0.00246697 5.68549 3.66251 -20.835 
9454 591 3 1.008 0.03 5.28836 7.62728 7.19979 5.28836 56.8096 7.19979 0 1 0 -0.00862274 0.0146035 0.0179697 22.4183 -10.9109 -7.36964 
9446 591 2 12.01 0.11 6.06056 6.82388 7.32986 6.06056 56.0062 7.32986 0 1 0 -0.00206263 0.00485273 0.00889989 -60.943 -37.3756 38.8191 
1194 75 3 1.008 0.03 8.23763 5.20306 5.37408 -40.9447 5.20306 5.37408 -1 0 0 0.0010295 -0.00626863 0.000856934 6.7872 5.12334 -9.5632 
1187 75 2 12.01 0.14 8.33984 4.28993 3.43896 -40.8425 4.28993 3.43896 -1 0 0 -0.00480736 0.00430537 -0.00699336 -9.65996 14.5095 -4.48991 
1189 75 2 12.01 0.11 8.16861 2.53033 1.93995 -41.0137 2.53033 1.93995 -1 0 0 -0.00687969 0.000352257 -0.00433666 -0.68131 32.161 15.7581 
1197 75 3 1.008 0.03 8.52973 2.88688 0.989062 -40.6526 2.88688 0.989062 -1 0 0 0.00133049 0.0124381 -0.00751302 4.36863 -0.336634 -8.41616 
1196 75 3 1.008 0.03 7.42961 1.80849 1.8296 -41.7527 1.80849 1.8296 -1 0 0 0.0262309 -0.00583358 0.00744115 -18.1115 -29.0548 -12.1688 
4381 274 3 1.008 0.03 1.44317 0.717515 7.427 50.6255 99.0822 -41.7553 1 2 -1 0.0163268 -0.00127905 0.0276291 11.1043 -10.606 -9.04212 
9456 591 3 1.008 0.03 6.91747 6.86849 6.71013 6.91747 56.0508 6.71013 0 1 0 -0.0026261 -0.02819 -0.0173165 11.6728 6.65056 -19.9952 
9443 591 2 12.01 0.14 5.66476 3.18709 7.34468 5.66476 52.3694 7.34468 0 1 0 0.00497989 -0.00485009 -0.0089085 -0.13218 -24.991 -10.335 
9451 591 3 1.008 0.03 6.50271 1.05918 5.83893 6.50271 50.2415 5.83893 0 1 0 -0.0166375 0.0186747 0.0072087 7.06366 13.6846 -29.4732 
4379 274 3 1.008 0.03 2.11115 0.431894 5.66808 51.2935 98.7966 -43.5143 1 2 -1 0.0188418 -0.00225031 0.00624985 -4.14293 0.950405 18.2163 
9445 591 2 12.01 0.11 6.40767 0.978469 6.87657 6.40767 50.1608 6.87657 0 1 0 -0.00477159 -0.00614619 0.00128666 18.7258 -34.6078 10.5267 
9453 591 3 1.008 0.03 5.44147 0.598493 7.01939 5.44147 49.7808 7.01939 0 1 0 0.000229066 -0.0146688 -0.0363187 -24.979 -14.1686 8.45089 
8779 549 3 1.008 0.03 12.0892 7.28898 2.85213 -37.0931 -41.8934 2.85213 -1 -1 0 -0.0251382 0.0018746 -0.0118537 -14.5353 -17.1451 17.1732 
1192 75 3 1.008 0.03 8.82071 4.92088 2.75742 -40.3616 4.92088 2.75742 -1 0 0 -0.00948004 -0.00904857 0.0223921 23.44 18.0061 -14.5449 
8769 549 1 16 -0.4 12.788 6.70458 0.948529 -36.3943 -42.4778 0.948529 -1 -1 0 0.000779882 -0.00172852 -0.00422905 -14.0583 13.3236 22.0526 
8796 550 3 1.008 0.03 9.42572 1.80038 5.96456 -88.939 198.53 55.1469 -2 4 1 0.00631657 -0.00127602 0.0345147 -6.29648 2.67692 -0.37041 
1191 75 3 1.008 0.03 9.07599 3.69678 3.93378 -40.1064 3.69678 3.93378 -1 0 0 0.0121931 0.00373089 -0.00230773 9.55752 -9.85761 8.10612 
1195 75 3 1.008 0.03 8.97042 2.11771 2.53809 -40.2119 2.11771 2.53809 -1 0 0 0.0157243 0.016046 -0.00159675 5.45768 -7.68965 -1.65713 
3253 204 2 12.01 0.11 12.924 4.54076 3.75347 111.289 53.7231 102.118 2 1 2 0.00340337 -0.00228916 -0.00161137 -6.36479 -17.0635 -5.78413 
3259 204 3 1.008 0.03 13.0172 4.31779 2.70644 111.382 53.5001 101.071 2 1 2 0.00268624 0.00661681 0.0127715 -17.1879 4.89558 -13.6335 
3261 204 3 1.008 0.03 12.0025 5.04628 4.09738 110.367 54.2286 102.462 2 1 2 -0.0201481 -0.0289605 6.68617e-06 4.1017 -2.18348 -15.5806 
3249 204 1 16 -0.4 14.0741 5.29384 3.98521 112.439 54.4762 102.35 2 1 2 0.00390196 -0.0083253 0.00488907 11.1122 5.69775 10.1706 
3260 204 3 1.008 0.03 12.919 3.54135 4.18625 111.284 52.7237 102.551 2 1 2 -0.0111336 0.040577 -0.0133033 5.53099 2.0974 8.24932 
3251 204 2 12.01 0.14 14.1835 5.56723 5.36503 112.548 54.7496 103.73 2 1 2 -0.00939091 0.00395292 0.00112173 51.3362 39.6631 -16.5529 
3255 204 3 1.008 0.03 13.3071 5.36709 5.81437 111.672 54.5494 104.179 2 1 2 0.0124839 -0.00409561 0.0302577 -45.6675 -16.5997 37.9332 
3257 204 3 1.008 0.03 13.9192 7.58617 4.78345 112.284 56.7685 103.148 2 1 2 -0.00243802 0.00724198 -0.0155339 7.48627 4.57026 -4.67944 
3252 204 2 12.01 0.14 14.4214 7.08911 5.61008 112.786 56.2715 103.975 2 1 2 0.00377163 0.000888911 0.00161219 7.7461 -17.7217 -22.5515 
2537 159 3 1.008 0.03 16.0183 6.46578 2.24818 16.0183 55.6481 51.4305 0 1 1 -0.0281312 0.0241341 0.0130195 43.0404 -12.5581 20.7194 
8773 549 2 12.01 0.11 12.6466 7.65268 2.03889 -36.5358 -41.5297 2.03889 -1 -1 0 0.00579734 -0.000708393 0.00395264 15.4567 -5.52629 -26.6426 
7963 498 3 1.008 0.03 15.5758 3.68544 0.890021 15.5758 52.8678 50.0724 0 1 1 0.00205952 0.00383772 0.0295655 -1.77238 -11.4151 17.3895 
3250 204 1 16 -0.4 15.8342 7.40616 5.68653 114.199 56.5885 104.051 2 1 2 -0.000684723 0.00069398 0.000252817 -31.4729 13.4002 -0.728703 
3258 204 3 1.008 0.03 13.8344 7.49305 6.41901 112.199 56.6754 104.784 2 1 2 -0.0195912 0.0158069 -0.00412148 3.29572 -4.61846 16.1684 
8781 549 3 1.008 0.03 12.0864 8.53794 1.73444 -37.0959 -40.6444 1.73444 -1 -1 0 -0.00890723 0.000661854 -0.0131073 9.75216 5.15013 -2.25495 
8789 550 2 12.01 0.11 10.4714 1.95331 5.72719 -87.8933 198.683 54.9095 -2 4 1 0.00205308 -0.00604646 -0.00231717 19.9032 -15.6497 -2.74452 
8797 550 3 1.008 0.03 10.5865 1.86715 4.64115 -87.7782 198.597 53.8235 -2 4 1 0.00721923 -0.0262348 -0.00717376 -1.24461 14.1369 2.59475 
3256 204 3 1.008 0.03 14.9926 4.98716 5.78776 113.357 54.1695 104.152 2 1 2 -0.000976426 -0.0255478 0.0104055 0.1516 -6.34361 6.42039 
8785 550 1 16 -0.4 11.0386 3.14814 6.32298 -87.3261 199.878 55.5053 -2 4 1 -0.00807252 -0.00412444 0.00288816 -20.8334 -3.94946 18.4108 
2540 159 3 1.008 0.03 16.4948 2.92429 2.76791 16.4948 52.1066 51.9503 0 1 1 0.011719 -0.0283635 0.00290586 -23.4012 -1.53627 14.8107 
2743 172 3 1.008 0.03 9.96087 7.78966 5.17099 9.96087 7.78966 54.3533 0 0 1 -0.0248716 0.039464 0.0145514 6.06143 10.548 -15.2482 
8795 550 3 1.008 0.03 10.9966 1.0228 6.0139 -87.3681 197.752 55.1962 -2 4 1 -0.00863706 0.00774084 -0.00514106 -3.47906 13.7881 9.8476 
3867 242 3 1.008 0.03 15.7425 0.437958 0.962652 -33.4399 98.8027 -48.2197 -1 2 -1 -0.0207001 0.015854 0.00167896 -6.48745 -6.56019 12.6911 
8780 549 3 1.008 0.03 13.6343 7.86839 2.46553 -35.548 -41.314 2.46553 -1 -1 0 -0.0219007 -0.0246707 0.0543103 -4.54484 7.1203 -6.80395 
8775 549 3 1.008 0.03 10.7088 6.29161 1.04472 -38.4735 -42.8907 1.04472 -1 -1 0 -0.0162041 -0.0206247 0.0212317 -5.66849 -10.1414 11.414 
2530 159 1 16 -0.4 17.7107 6.64779 1.1894 17.7107 55.8301 50.3718 0 1 1 -0.0029468 -0.00191087 0.00374307 20.6198 -31.5554 -11.9549 
1527 96 3 1.008 0.03 19.7816 2.09035 0.641773 19.7816 51.2727 49.8241 0 1 1 0.0319294 -0.000441714 -0.0284812 -13.9202 10.0885 -27.3428 
7654 479 2 12.01 0.11 23.7816 8.43668 5.83711 -25.4007 57.619 5.83711 -1 1 0 0.000764549 -0.000324698 -0.00160326 -11.7119 -2.2882 -42.9899 
2535 159 3 1.008 0.03 16.9976 4.85174 3.81437 16.9976 54.0341 52.9967 0 1 1 0.0153736 0.00638519 -0.01852 3.25847 -5.72503 2.66161 
1406 88 3 1.008 0.03 17.0984 1.60892 6.93396 66.2807 1.60892 105.299 1 0 2 0.0209369 -0.0134318 0.00973951 -2.68429 -6.58074 -15.3823 
7663 479 3 1.008 0.03 23.7394 7.38588 5.42916 -25.4429 56.5682 5.42916 -1 1 0 0.024294 0.00358673 -0.0268604 -3.90589 22.6255 12.6331 
1405 88 3 1.008 0.03 20.7143 7.04103 7.08358 69.8966 7.04103 105.448 1 0 2 -0.00654428 -0.0144953 -0.0118032 -6.72042 2.46471 -13.2402 
2578 162 1 16 -0.4 23.8178 3.51303 5.4277 23.8178 3.51303 54.6101 0 0 1 0.000797104 -0.000247554 -0.00176181 -8.95864 1.86122 -17.1397 
2582 162 2 12.01 0.11 23.5244 3.45031 6.80052 23.5244 3.45031 55.9829 0 0 1 0.00120056 -0.00625149 0.00111486 14.3615 29.2227 30.5835 
2541 159 3 1.008 0.03 17.5226 2.36684 1.524 17.5226 51.5492 50.7064 0 1 1 0.0155973 -0.0125281 -0.00970451 -2.53683 -5.09032 0.0129642 
2529 159 1 16 -0.4 17.8667 4.27618 1.95775 17.8667 53.4585 51.1401 0 1 1 -0.00362203 0.00133891 -0.00119924 -19.9703 -15.2472 4.55658 
2536 159 3 1.008 0.03 18.7491 5.20135 3.47909 18.7491 54.3837 52.6614 0 1 1 0.00450957 -0.00018749 -0.0149394 -31.2092 10.2689 -5.40512 
2532 159 2 12.01 0.14 17.1542 6.42217 2.48528 17.1542 55.6045 51.6676 0 1 1 0.00351532 -0.00119215 -0.0026675 -47.0985 71.5334 -3.11529 
2531 159 2 12.01 0.14 17.7064 5.14899 3.0387 17.7064 54.3313 52.2211 0 1 1 -0.000386192 0.00622714 -0.00269139 27.7585 -2.57428 24.1824 
2533 159 2 12.01 0.11 17.4829 2.99113 2.41159 17.4829 52.1735 51.5939 0 1 1 -0.00290717 -0.00131098 -0.0059439 54.1864 -25.6234 -9.97384 
2538 159 3 1.008 0.03 17.3639 7.27208 3.22796 17.3639 56.4544 52.4103 0 1 1 -0.0053092 0.0097706 -0.0033196 -5.88843 -26.762 -26.6007 
2539 159 3 1.008 0.03 18.2396 2.52818 3.11083 18.2396 51.7105 52.2932 0 1 1 -0.013912 0.0100563 0.00465076 -24.8122 15.6499 -10.1616 
4748 297 3 1.008 0.03 20.3857 3.85021 3.91269 -28.7966 53.0326 -94.452 -1 1 -2 0.0165381 0.0175841 0.0279905 16.9216 6.15911 3.92706 
4739 297 2 12.01 0.14 20.5845 0.809724 3.54715 -28.5979 49.9921 -94.8175 -1 1 -2 0.0029098 0.00279487 0.00340806 -25.9325 -44.6021 32.0009 
1529 96 3 1.008 0.03 21.4426 3.43377 1.08737 21.4426 52.6161 50.2697 0 1 1 -0.0163168 -0.00764911 0.00532135 19.7371 -12.8254 11.5789 
4744 297 3 1.008 0.03 20.0333 0.768186 4.56632 -29.1491 49.9505 -93.7984 -1 1 -2 0.0183978 0.0281345 0.0105367 27.0723 5.91543 -38.8437 
1393 88 1 16 -0.4 20.1824 5.21009 6.193 69.3648 5.21009 104.558 1 0 2 -0.00114078 -0.00315441 -0.00458678 -5.71659 9.27825 -19.5627 
1397 88 2 12.01 0.11 21.0439 6.32797 6.31435 70.2263 6.32797 104.679 1 0 2 -0.00518178 -0.00260113 -0.00154832 12.3953 -22.4484 49.1804 
1526 96 2 12.01 0.11 21.0183 5.87061 1.53807 21.0183 55.053 50.7204 0 1 1 -0.00301885 -0.00296368 1.3865e-06 -42.6857 28.0595 -4.37531 
1536 96 3 1.008 0.03 21.8532 5.53174 2.07912 21.8532 54.7141 51.2615 0 1 1 0.00221113 -0.0104879 -0.014011 16.8782 -16.3872 17.4118 
4749 297 3 1.008 0.03 21.2466 2.70243 5.0132 -27.9357 51.8848 -93.3515 -1 1 -2 0.00831179 -0.00409209 -0.0162617 -9.69245 2.40604 -19.1312 
4747 297 3 1.008 0.03 22.1195 3.25646 3.61775 -27.0629 52.4388 -94.7469 -1 1 -2 -0.0228541 0.00640288 -0.000202074 8.12502 16.049 -6.0567 
4741 297 2 12.01 0.11 21.1255 3.04325 3.95318 -28.0569 52.2256 -94.4115 -1 1 -2 0.00050211 -0.00183373 -0.00285291 -10.9908 -14.4915 20.3656 
4737 297 1 16 -0.4 20.606 2.1205 3.02902 -28.5764 51.3029 -95.3357 -1 1 -2 0.00295083 -0.00716303 -0.0111047 -0.355552 -5.22453 1.87468 
5609 351 3 1.008 0.03 24.4372 1.02098 1.75456 122.802 50.2033 100.119 2 1 2 -0.00223775 0.0060736 0.00897202 5.19735 6.16065 -13.7844 
1404 88 3 1.008 0.03 21.063 6.77384 5.34027 70.2454 6.77384 103.705 1 0 2 0.0220201 -0.0117269 -0.0131838 15.1465 10.2291 -8.22443 
1535 96 3 1.008 0.03 20.4684 6.6625 2.11096 20.4684 55.8448 51.2933 0 1 1 0.00467613 0.00640115 0.0268132 10.1911 -18.3786 -6.6007 
2591 162 3 1.008 0.03 22.5637 2.96981 6.96283 22.5637 2.96981 56.1452 0 0 1 -0.0146033 -0.012105 -0.0182521 -2.01694 0.550425 2.3409 
1394 88 1 16 -0.4 18.7414 2.64362 6.42966 67.9237 2.64362 104.794 1 0 2 -0.000702494 -0.00108126 0.00423718 14.8275 -5.69756 -14.4355 
1408 88 3 1.008 0.03 17.9165 0.990276 5.39747 67.0988 0.990276 103.762 1 0 2 0.0135418 0.00851528 0.0150285 1.22321 -1.92632 9.16252 
1407 88 3 1.008 0.03 17.0074 2.4679 5.33388 66.1898 2.4679 103.699 1 0 2 0.000743592 -0.00425592 0.00939343 -2.21092 -2.3197 6.74749 
1398 88 2 12.01 0.11 17.6312 1.85836 5.99805 66.8135 1.85836 104.363 1 0 2 -0.00124917 0.00815952 -0.0011602 -2.90584 22.8613 11.4842 
2534 159 2 12.01 0.11 17.4583 7.91226 0.610472 17.4583 57.0946 49.7928 0 1 1 -0.00657117 -0.00620985 0.00667661 -6.32059 31.3259 -12.1734 
1403 88 3 1.008 0.03 22.0116 5.98106 6.78545 71.1939 5.98106 105.15 1 0 2 0.0212345 0.00682193 -0.00359444 -21.1373 8.65192 -31.1366 
1396 88 2 12.01 0.14 18.4473 3.86119 7.10414 67.6297 3.86119 105.469 1 0 2 0.00424778 -0.0064272 0.00107798 13.0037 -36.9531 37.1911 
2542 159 3 1.008 0.03 17.7825 8.60483 1.38664 17.7825 57.7872 50.569 0 1 1 0.00305827 -0.00960762 -0.013589 1.50775 10.075 -7.80819 
1522 96 1 16 -0.4 20.1211 4.92556 0.956155 20.1211 54.1079 50.1385 0 1 1 -0.00312852 0.00119354 -0.000883931 -2.17137 -0.729438 5.41004 
1534 96 3 1.008 0.03 21.3944 6.37258 0.692496 21.3944 55.5549 49.8748 0 1 1 -0.0136314 -0.00391838 0.0153773 16.0203 15.8735 -14.5279 
2590 162 3 1.008 0.03 23.5319 4.48902 7.24809 23.5319 4.48902 56.4304 0 0 1 -0.00989918 -0.00500833 -0.0105344 -5.56834 -25.8627 -13.6657 
1402 88 3 1.008 0.03 17.7644 4.42199 6.56389 66.9468 4.42199 104.929 1 0 2 -0.0185622 -0.0386666 -0.00376472 -20.8668 23.1216 -21.9612 
2592 162 3 1.008 0.03 24.2964 2.9381 7.40509 24.2964 2.9381 56.5874 0 0 1 0.0107309 -0.034675 0.0110817 -9.26673 -3.82478 -10.0055 
1395 88 2 12.01 0.14 19.7582 4.66151 7.40082 68.9405 4.66151 105.766 1 0 2 -7.19782e-05 0.00432621 -0.00309826 -24.3924 44.5594 33.8515 
1042 66 1 16 -0.4 2.1625 8.76951 2.14437 -47.0198 -89.5952 149.691 -1 -2 3 0.00195792 -0.00315115 0.00491436 0.182044 3.17224 8.24141 
1046 66 2 12.01 0.11 1.91074 8.638 3.55107 -47.2716 -89.7267 151.098 -1 -2 3 0.00741386 -0.00213211 0.0048528 9.71739 17.1938 -18.5734 
2339 147 2 12.01 0.14 4.61348 10.9667 6.72444 53.7958 60.1491 6.72444 1 1 0 -0.00769149 -0.00256487 -0.000765492 28.5478 -13.1809 -21.183 
8018 502 1 16 -0.4 2.11277 15.0302 1.502 100.477 113.395 99.8667 2 2 2 0.00505401 0.00117891 0.0052456 35.048 5.24186 -5.57162 
8032 502 3 1.008 0.03 4.07105 14.4373 1.46367 102.436 112.802 99.8284 2 2 2 -0.0280944 -0.0206974 0.00259842 -4.40295 18.0079 -11.8622 
1056 66 3 1.008 0.03 2.06313 9.64654 3.92666 -47.1192 -88.7182 151.474 -1 -2 3 -0.00861028 0.0052801 -0.00638583 -6.73226 0.132976 5.58817 
2746 172 3 1.008 0.03 7.96467 8.7308 4.14077 7.96467 8.7308 53.3231 0 0 1 -0.00456258 -0.0145748 0.0119087 -5.03548 4.66023 -11.6574 
2199 138 3 1.008 0.03 6.18068 14.7329 5.29181 55.363 63.9152 -93.0729 1 1 -2 0.0175147 0.0121559 0.00166059 1.08586 0.214404 12.5777 
2340 147 2 12.01 0.14 3.84133 11.3129 5.45762 53.0237 60.4953 5.45762 1 1 0 -0.000967549 0.00317123 -0.00150938 35.131 12.4659 -4.50362 
2346 147 3 1.008 0.03 2.79291 11.2584 5.6183 51.9753 60.4408 5.6183 1 1 0 0.00562685 0.00454746 -0.0119375 -16.6482 -4.79628 -6.90992 
2338 147 1 16 -0.4 4.28473 12.5879 5.09131 53.4671 61.7702 5.09131 1 1 0 -0.00396328 0.00346963 -0.00423901 -2.98281 0.290455 33.2236 
2350 147 3 1.008 0.03 2.65105 13.4485 3.9287 51.8334 62.6309 3.9287 1 1 0 0.00549238 0.0272172 -0.00607515 6.81779 1.11551 14.6125 
2342 147 2 12.01 0.11 3.69518 13.1033 3.96634 52.8775 62.2856 3.96634 1 1 0 0.00580165 -0.00351817 -0.000123874 17.7386 -2.99867 -56.3501 
2351 147 3 1.008 0.03 4.4422 13.8883 3.80386 53.6245 63.0706 3.80386 1 1 0 -0.0351795 0.00587274 0.0135333 -18.2212 9.82454 -7.26359 
2352 147 3 1.008 0.03 3.8484 12.444 3.07403 53.0308 61.6263 3.07403 1 1 0 -0.0384411 -0.0102905 -0.0145049 -4.87716 7.81963 18.0029 
2345 147 3 1.008 0.03 4.24689 10.7347 4.61683 53.4292 59.9171 4.61683 1 1 0 0.00172218 -0.0155505 -0.0249979 -15.5766 -11.2048 5.85521 
2751 172 3 1.008 0.03 6.49939 10.5384 3.16737 6.49939 10.5384 52.3497 0 0 1 0.00740327 -0.00791823 -0.00809449 -7.31771 -6.74335 11.4108 
2195 138 2 12.01 0.14 7.14218 14.7599 5.82531 56.3245 63.9423 -92.5394 1 1 -2 0.00654971 -3.93839e-05 -0.000705696 -35.896 22.2858 5.83964 
2742 172 2 12.01 0.11 7.33832 11.1979 3.32573 7.33832 11.1979 52.5081 0 0 1 0.00302169 -0.00732768 0.0102724 13.6438 13.6897 -2.37234 
2200 138 3 1.008 0.03 7.74453 14.8731 4.9545 56.9269 64.0554 -93.4102 1 1 -2 0.00194196 -0.0149129 0.020866 22.0917 6.97191 -5.42854 
2202 138 3 1.008 0.03 7.05997 12.6079 5.7476 56.2423 61.7902 -92.6171 1 1 -2 0.00186909 0.013954 0.00308786 10.2062 23.2416 27.2763 
2196 138 2 12.01 0.14 7.32419 13.4142 6.50461 56.5065 62.5966 -91.8601 1 1 -2 -1.66569e-05 0.00918446 -0.00174452 39.8318 -27.6401 -21.6806 
2752 172 3 1.008 0.03 7.00261 12.2032 3.66467 7.00261 12.2032 52.847 0 0 1 -0.00823238 -0.012126 -0.00524113 1.45326 -15.7518 -8.41603 
2344 147 3 1.008 0.03 4.59918 9.87616 6.74804 53.7815 59.0585 6.74804 1 1 0 -0.0306467 -0.0204776 -0.00522222 4.36283 0.459381 6.00461 
2511 157 3 1.008 0.03 4.32423 15.9246 6.89986 4.32423 15.9246 6.89986 0 0 0 -0.00134613 -0.00223885 -0.00163256 -17.5602 -38.8051 14.9765 
2750 172 3 1.008 0.03 7.72604 11.3071 2.32157 7.72604 11.3071 51.5039 0 0 1 -0.0339922 0.00951531 0.00653761 4.51932 5.07465 -3.35117 
2738 172 1 16 -0.4 8.39342 10.7235 4.17224 8.39342 10.7235 53.3546 0 0 1 0.00346844 0.00122403 0.000883684 -10.2204 8.87774 5.62404 
2510 157 3 1.008 0.03 3.47766 14.3625 6.7173 3.47766 14.3625 6.7173 0 0 0 0.0146262 0.00843979 0.0234483 -3.0978 -9.89293 -0.650327 
9783 613 7 12.01 0.35 0.443574 11.0617 6.88483 0.443574 11.0617 6.88483 0 0 0 -0.000891216 -0.00035242 0.00371699 -2.30658 30.5594 27.0262 
4411 276 3 1.008 0.03 6.32769 14.643 1.692 6.32769 63.8254 149.239 0 1 3 -0.00880612 0.0163831 0.00103778 -20.9379 -0.141268 12.7245 
4413 276 3 1.008 0.03 7.33831 15.5074 0.55257 7.33831 64.6897 148.1 0 1 3 -0.00226767 0.0233061 -0.0178547 -3.41552 23.9299 3.39902 
9775 613 6 16 -0.53 0.451632 15.1533 5.30013 0.451632 15.1533 5.30013 0 0 0 -0.00113428 0.00139558 -0.00138224 -10.6613 -13.4998 6.94794 
9786 613 8 19 -0.16 0.59994 10.8794 5.6111 0.59994 10.8794 5.6111 0 0 0 0.000201146 0.000362662 0.000599577 6.96854 -13.9581 -20.8604 
4412 276 3 1.008 0.03 8.00733 14.1797 1.40458 8.00733 63.362 148.952 0 1 3 -0.0114872 0.00177316 -0.0318816 -21.9646 4.47765 -6.10993 
2193 138 1 16 -0.4 7.07487 15.8888 6.74906 56.2572 65.0712 -91.6156 1 1 -2 0.00382897 -0.00243459 0.00425703 14.4717 0.316198 -28.3808 
9784 613 8 19 -0.16 1.48385 11.7814 7.30941 1.48385 11.7814 7.30941 0 0 0 -0.000828171 -0.00348931 -0.00949509 -6.78162 -7.96974 -4.08503 
4218 264 3 1.008 0.03 7.33641 9.18366 0.787499 7.33641 -39.9987 -97.5772 0 -1 -2 0.0108783 0.00767343 -0.0079778 2.84557 -7.5149 -10.206 
2197 138 2 12.01 0.11 8.21995 16.7859 6.67512 57.4023 65.9682 -91.6896 1 1 -2 0.00385131 0.000965915 0.00222609 -25.4992 -32.1231 55.7264 
8026 502 3 1.008 0.03 0.416688 15.9739 1.56377 98.7814 114.339 99.9285 2 2 2 0.0086519 -0.00237763 -0.0316754 -9.88087 2.75261 3.3856 
8031 502 3 1.008 0.03 3.71112 16.0952 0.692392 102.076 114.46 99.0571 2 2 2 0.0300645 -0.0114879 -0.0289651 7.75987 -5.33578 -2.49794 
2201 138 3 1.008 0.03 6.81314 13.2336 7.43113 55.9955 62.4159 -90.9336 1 1 -2 -0.0205209 0.00178243 0.000250671 -20.4116 8.43921 2.42627 
8020 502 2 12.01 0.14 1.182 15.8228 0.823049 99.5467 114.187 99.1877 2 2 2 -0.00165046 -0.0019131 -0.00372556 -21.2008 18.9034 -14.3092 
7616 476 3 1.008 0.03 0.540799 13.1719 2.42589 0.540799 -85.1928 2.42589 0 -2 0 -0.0107601 0.0215884 -0.000172996 -12.3853 -9.59058 13.5307 
2343 147 3 1.008 0.03 5.67656 11.3011 6.59736 54.8589 60.4834 6.59736 1 1 0 -0.00646974 0.00712513 -0.010189 -23.0481 -11.9974 8.5665 
4405 276 2 12.01 0.11 7.05695 14.5563 0.936034 7.05695 63.7386 148.483 0 1 3 0.000617737 6.12589e-07 0.00223075 50.783 -36.0539 -31.3742 
8022 502 2 12.01 0.11 3.39069 15.0588 0.834715 101.755 113.424 99.1994 2 2 2 -0.000939003 0.00598465 0.0076342 -20.0332 -11.4709 51.2822 
4222 264 3 1.008 0.03 9.21444 10.683 0.64698 9.21444 -38.4993 -97.7177 0 -1 -2 -0.00537365 0.0132114 0.002827 13.166 -25.0852 -19.0093 
1834 115 3 1.008 0.03 12.3407 12.1105 1.40939 12.3407 12.1105 -146.138 0 0 -3 -0.00915815 -0.00106825 -0.0196939 3.74568 -7.89014 4.14099 
2194 138 1 16 -0.4 8.72259 13.3189 6.84966 57.9049 62.5012 -91.515 1 1 -2 7.79844e-06 -0.00670994 -0.0026505 -9.42873 4.65981 -18.0182 
2740 172 2 12.01 0.14 8.79182 9.39474 3.92211 8.79182 9.39474 53.1045 0 0 1 -0.00526839 -0.000228574 0.00601476 61.0627 -31.263 33.845 
7153 448 1 16 -0.4 14.7333 13.4371 7.09913 14.7333 -35.7453 56.2815 0 -1 1 0.00011766 0.0011119 0.00298751 32.2647 -2.5003 16.0169 
7163 448 3 1.008 0.03 13.1244 12.6308 6.25246 13.1244 -36.5516 55.4348 0 -1 1 -0.00215934 0.00872654 6.82484e-05 -12.5662 -28.2858 -17.2128 
7164 448 3 1.008 0.03 12.9853 14.0562 7.16971 12.9853 -35.1261 56.3521 0 -1 1 -0.0104362 0.0111043 0.00548513 -28.8969 20.2785 -10.3465 
2745 172 3 1.008 0.03 9.23448 9.27634 2.93069 9.23448 9.27634 52.113 0 0 1 0.00601163 0.0144768 0.0339396 -11.9038 -2.22151 -4.02625 
1833 115 3 1.008 0.03 12.6954 13.7804 0.997082 12.6954 13.7804 -146.55 0 0 -3 0.00125159 -0.00897877 0.0074053 19.414 6.64295 3.55254 
2747 172 3 1.008 0.03 12.63 10.4737 5.69666 12.63 10.4737 54.879 0 0 1 -0.0115348 0.0218121 -0.00555313 32.5108 4.35297 1.13168 
2741 172 2 12.01 0.11 11.6205 10.3145 5.90348 11.6205 10.3145 55.0858 0 0 1 0.000655191 0.00779448 0.00528109 -27.1402 4.89242 -67.5576 
2744 172 3 1.008 0.03 9.53619 9.23961 5.91974 9.53619 9.23961 55.1021 0 0 1 0.0132368 0.00837365 0.0181481 3.9547 -3.49559 -2.83492 
2739 172 2 12.01 0.14 9.94349 8.88022 4.96475 9.94349 8.88022 54.1471 0 0 1 0.00401978 -3.60678e-06 -0.00853756 -57.0957 28.1057 -2.84513 
1828 115 2 12.01 0.14 11.9308 13.0988 1.29097 11.9308 13.0988 -146.256 0 0 -3 0.000483159 -0.00143751 -0.00230838 4.90716 0.685911 -8.83815 
1831 115 3 1.008 0.03 11.7062 13.037 3.36083 11.7062 13.037 -144.186 0 0 -3 -0.0327236 0.0154721 0.00624254 4.57847 8.73027 0.580406 
1832 115 3 1.008 0.03 10.2372 13.2827 2.6913 10.2372 13.2827 -144.856 0 0 -3 -0.00341522 0.0427863 -0.00935699 -24.1124 0.333862 -8.31109 
1827 115 2 12.01 0.14 11.2361 13.6072 2.5532 11.2361 13.6072 -144.994 0 0 -3 0.00279509 0.00376323 -0.00266016 26.2621 4.60023 15.3294 
2737 172 1 16 -0.4 11.2119 9.49092 4.75217 11.2119 9.49092 53.9345 0 0 1 0.00642804 -0.000324362 0.000410595 3.33841 7.92181 31.2852 
2748 172 3 1.008 0.03 11.1751 11.3416 5.78594 11.1751 11.3416 54.9683 0 0 1 0.0132072 -0.00871131 -0.00845914 1.38672 -24.0833 15.1411 
2749 172 3 1.008 0.03 11.5629 9.83474 6.85778 11.5629 9.83474 56.0401 0 0 1 -0.00211717 0.0014822 -0.0137761 -6.77814 -1.25792 14.534 
10104 635 6 16 -0.53 15.286 13.2511 2.10859 113.651 62.4335 2.10859 2 1 0 0.00623704 0.00775727 -0.00504661 -7.01341 -4.99382 5.75018 
1825 115 1 16 -0.4 11.4614 15.0266 2.73757 11.4614 15.0266 -144.809 0 0 -3 0.00474936 -0.00404579 -0.00507725 -25.6689 -10.9894 17.6528 
1829 115 2 12.01 0.11 11.0711 15.4574 4.07152 11.0711 15.4574 -143.476 0 0 -3 -0.00322397 -0.00839449 0.00351826 50.6111 58.4355 7.85812 
10103 635 5 32.06 1.02 15.7299 11.9035 1.82129 114.095 61.0859 1.82129 2 1 0 0.00411336 0.000666391 0.000530417 -13.8958 9.98278 14.2101 
10105 635 6 16 -0.53 14.7364 10.899 1.5933 113.101 60.0813 1.5933 2 1 0 0.00117937 -0.00458983 -0.0057278 -12.7392 -9.47554 -5.41842 
10106 635 7 12.01 0.35 16.4955 11.3276 3.36856 114.86 60.51 3.36856 2 1 0 0.0048513 0.00143089 -0.00100788 1.91719 38.9058 -41.4982 
10107 635 8 19 -0.16 15.5781 11.3326 4.29559 113.943 60.5149 4.29559 2 1 0 0.0022817 -0.00546049 -0.00348223 3.87597 0.43422 27.7564 
3254 204 2 12.01 0.11 15.9069 8.8191 5.90339 114.272 58.0015 104.268 2 1 2 -0.00338866 -0.00606833 0.0103542 40.0644 20.1064 -18.46 
1836 115 3 1.008 0.03 11.5666 14.8236 4.80601 11.5666 14.8236 -142.741 0 0 -3 -0.00362476 -0.00169527 -0.0169379 -3.13448 -0.722237 1.65964 
7165 448 3 1.008 0.03 13.7641 14.1942 5.60197 13.7641 -34.9881 54.7843 0 -1 1 0.0202047 0.000213236 0.0109069 -6.46384 0.115567 -16.3878 
7157 448 2 12.01 0.11 13.5734 13.5484 6.43725 13.5734 -35.634 55.6196 0 -1 1 -0.00545658 0.0103441 0.00413688 -3.98186 36.9115 4.64295 
3263 204 3 1.008 0.03 15.2739 9.44913 5.31058 113.639 58.6315 103.675 2 1 2 0.00464064 0.0352093 -0.0193761 -12.9062 -7.65371 -14.8209 
1837 115 3 1.008 0.03 11.5616 16.507 4.22561 11.5616 16.507 -143.321 0 0 -3 -0.0121651 -0.00434891 0.00434913 -20.3753 -48.803 -9.16238 
4951 310 3 1.008 0.03 13.9951 16.1356 2.34096 63.1774 16.1356 2.34096 1 0 0 0.00520365 0.00254357 0.0253673 0.757563 5.65966 3.34483 
1835 115 3 1.008 0.03 10.0579 15.6637 4.42885 10.0579 15.6637 -143.118 0 0 -3 -0.0138903 -0.0179199 0.0104286 -6.6017 -13.8469 -19.5933 
7807 488 3 1.008 0.03 16.0663 15.5831 3.98256 65.2487 15.5831 3.98256 1 0 0 -0.0163383 -0.00914749 0.0151799 -29.6445 -3.981 5.00751 
3264 204 3 1.008 0.03 15.6565 9.16211 6.87082 114.021 58.3445 105.236 2 1 2 -0.00123318 -0.0160679 0.0113595 -3.06201 -5.49829 26.6504 
2206 138 3 1.008 0.03 8.64654 11.2096 7.05655 57.8289 60.3919 -91.3081 1 1 -2 -0.00443254 0.0335976 0.00205288 9.29362 13.1961 0.303175 
2205 138 3 1.008 0.03 9.08913 16.1584 6.94473 58.2715 65.3407 -91.42 1 1 -2 0.0151398 -0.00401355 0.00623799 -0.107119 12.9786 -9.86834 
5047 316 3 1.008 0.03 24.532 15.9201 5.37724 122.897 -33.2623 -92.9875 2 -1 -2 0.00674785 0.0258168 -0.0041244 4.83394 -20.3584 -5.69172 
7662 479 3 1.008 0.03 24.8106 8.74099 5.79548 -24.3717 57.9233 5.79548 -1 1 0 0.0148349 0.0121838 0.00173486 9.67404 2.56513 3.78783 
5272 330 3 1.008 0.03 21.2797 10.9914 1.48269 70.4621 10.9914 1.48269 1 0 0 0.0310348 0.0086811 -0.0286103 -3.9135 5.08127 -3.15911 
7799 488 3 1.008 0.03 19.4239 16.0317 0.796266 68.6062 16.0317 0.796266 1 0 0 -0.011242 0.0188652 -0.00530603 3.88902 -18.7596 -27.0402 
5267 330 2 12.01 0.14 21.0101 10.014 1.09216 70.1925 10.014 1.09216 1 0 0 -0.00305925 -0.00224305 0.00647881 -22.1759 14.4938 18.9998 
7802 488 3 1.008 0.03 19.2415 16.6653 3.64459 68.4239 16.6653 3.64459 1 0 0 -0.0033607 -0.0130171 0.0142467 30.8476 36.6052 39.6568 
10111 635 6 16 -0.53 19.2482 12.7667 1.3761 117.613 61.9491 1.3761 2 1 0 -0.00264389 -0.00519867 -0.00168629 -10.2809 -11.3568 4.43727 
5271 330 3 1.008 0.03 19.9697 10.0939 0.676492 69.152 10.0939 0.676492 1 0 0 -0.0115006 0.00173275 0.00526208 19.9973 -6.78007 12.4672 
7650 479 1 16 -0.4 23.2333 8.61732 7.11009 -25.9491 57.7997 7.11009 -1 1 0 0.00432921 0.00341133 -0.00731556 -6.0702 8.37944 10.1604 
7796 488 2 12.01 0.14 18.9343 16.2004 2.80758 68.1167 16.2004 2.80758 1 0 0 0.00024764 0.000459039 0.00359973 4.85057 -18.7767 -40.6777 
10108 635 8 19 -0.16 17.5467 12.0845 3.68115 115.911 61.2669 3.68115 2 1 0 -0.00384193 -0.0027059 -0.000913472 -12.587 -1.44672 14.79 
5043 316 2 12.01 0.14 23.9162 16.7501 5.61963 122.281 -32.4322 -92.7451 2 -1 -2 -0.00960536 0.00663973 0.00484627 -7.1325 65.936 40.3666 