ITEM: TIMESTEP
3800000
ITEM: NUMBER OF ATOMS
10479
ITEM: BOX BOUNDS pp pp pp
4.0882558190751794e-01 4.9591174418091420e+01
4.0882558190751794e-01 4.9591174418091420e+01
4.0882558190751794e-01 4.9591174418091420e+01
ITEM: ATOMS id mol type mass q x y z xu yu zu ix iy iz vx vy vz fx fy fz 
7171 449 2 12.01 0.14 1.64892 5.71538 1.3017 1.64892 54.8977 1.3017 0 1 0 -0.00209152 -0.00270564 -0.000272664 4.2133 11.4125 -5.3272 
1490 94 1 16 -0.4 4.10214 3.57416 6.51997 102.467 101.939 55.7023 2 2 1 -0.00191021 -0.00075605 0.00292035 -7.98365 7.46646 10.969 
1503 94 3 1.008 0.03 3.28084 2.5877 4.92603 101.646 100.952 54.1084 2 2 1 0.0122255 -0.00769531 -0.0252814 17.6334 7.37325 2.59452 
1494 94 2 12.01 0.11 4.25198 3.05096 5.22947 102.617 101.416 54.4118 2 2 1 0.00458137 0.0011654 -0.00201961 -43.1227 -9.01295 -1.14333 
1502 94 3 1.008 0.03 4.92611 2.24038 5.38733 103.291 100.605 54.5697 2 2 1 0.0118975 -0.00232831 0.0431636 18.9638 -8.42988 -13.7119 
1492 94 2 12.01 0.14 2.96383 4.4187 6.62208 101.329 102.783 55.8044 2 2 1 -0.00206336 -0.00252396 -0.00607441 32.6039 5.61726 22.0297 
1498 94 3 1.008 0.03 3.09645 5.16164 5.87892 101.461 103.526 55.0613 2 2 1 0.0236109 -0.00226535 -0.0129878 -0.193051 18.7812 -12.0646 
1497 94 3 1.008 0.03 2.07879 3.92068 6.37426 100.443 102.285 55.5566 2 2 1 0.0118129 -0.0115382 -0.0193625 -25.4454 -15.582 -2.83388 
5569 349 1 16 -0.4 8.1341 7.98732 4.44455 8.1341 7.98732 4.44455 0 0 0 -0.0025043 -0.00281681 0.00136452 8.68164 24.7104 -7.00683 
7179 449 3 1.008 0.03 1.91077 6.07091 4.02552 1.91077 55.2533 4.02552 0 1 0 0.00476245 -0.0293511 -0.00813295 30.6791 -7.36819 9.18925 
5571 349 2 12.01 0.14 7.20995 8.51044 5.37362 7.20995 8.51044 5.37362 0 0 0 -0.00788153 -0.00114394 0.00185645 -15.8938 -28.5672 -16.67 
4431 277 3 1.008 0.03 4.76158 5.63751 2.22274 103.126 5.63751 100.587 2 0 2 -0.0204904 0.00366166 -0.0185637 -0.475842 -12.5243 3.44863 
1504 94 3 1.008 0.03 4.49267 3.78726 4.45645 102.857 102.152 53.6388 2 2 1 -0.00183969 0.00880414 0.00281087 10.572 -3.26971 3.50236 
3018 189 3 1.008 0.03 8.16275 5.085 1.25755 8.16275 -44.0973 50.4399 0 -1 1 -0.00304987 0.013812 0.0265231 18.7991 5.9729 2.63034 
5572 349 2 12.01 0.14 6.97021 7.368 6.29703 6.97021 7.368 6.29703 0 0 0 0.00357385 0.00524672 -0.000416903 -50.4318 -21.5341 48.8774 
3023 189 3 1.008 0.03 7.53549 5.52442 3.91324 7.53549 -43.6579 53.0956 0 -1 1 0.00168281 0.00154378 0.0124414 -31.7177 36.5872 -7.23759 
7173 449 2 12.01 0.11 0.982949 6.01367 3.55034 0.982949 55.196 3.55034 0 1 0 -0.00374008 0.00641309 3.01952e-05 -52.9119 36.7954 6.69487 
5578 349 3 1.008 0.03 6.4332 6.51663 5.83607 6.4332 6.51663 5.83607 0 0 0 -0.032743 -0.0387873 -0.000542115 11.3939 9.62573 -5.19766 
5570 349 1 16 -0.4 8.18935 6.96267 6.86114 8.18935 6.96267 6.86114 0 0 0 -0.00212004 0.00437437 0.00540579 10.2182 -16.5461 26.2229 
7175 449 3 1.008 0.03 2.59255 5.30965 1.65909 2.59255 54.492 1.65909 0 1 0 0.00192278 -0.0164376 0.0113044 4.39964 9.9455 -0.195733 
7176 449 3 1.008 0.03 1.13618 4.82393 1.00654 1.13618 54.0063 1.00654 0 1 0 0.00488231 -0.0157542 0.0133071 -16.1208 -9.15314 3.92038 
900 57 2 12.01 0.14 1.26511 0.527256 6.79566 50.4475 0.527256 -42.3867 1 0 -1 0.000653418 0.000504291 0.000775667 -8.4305 -5.76239 -25.3018 
5577 349 3 1.008 0.03 6.24859 7.63181 7.14307 6.24859 7.63181 7.14307 0 0 0 0.000709999 0.00377229 -0.0186991 24.7298 -0.116759 -26.5668 
7169 449 1 16 -0.4 0.983089 6.53378 2.24715 0.983089 55.7161 2.24715 0 1 0 0.00228243 -0.0046817 0.0104287 2.60389 8.25648 3.40848 
906 57 3 1.008 0.03 1.69921 1.46535 7.09414 50.8816 1.46535 -42.0882 1 0 -1 -0.0177695 0.00912194 -0.00297353 5.9777 9.4739 -1.22887 
3014 189 2 12.01 0.11 8.35729 4.93346 4.03607 8.35729 -44.2489 53.2184 0 -1 1 -0.00243901 0.00966641 0.00111321 30.5878 -63.5509 26.1541 
3010 189 1 16 -0.4 8.46238 4.06766 2.90829 8.46238 -45.1147 52.0906 0 -1 1 0.00176422 -0.00221042 0.00250468 17.6036 1.84016 -4.85831 
3024 189 3 1.008 0.03 8.08156 4.23702 4.90051 8.08156 -44.9453 54.0829 0 -1 1 -0.00168136 0.00353159 0.00565925 16.9034 27.3556 -21.1877 
8370 524 1 16 -0.4 4.4027 2.80065 0.72861 102.767 101.165 -48.4537 2 2 -1 -0.00108146 -0.00425657 -0.00388362 14.5061 4.26276 17.585 
7181 449 3 1.008 0.03 0.566275 5.0493 3.45206 0.566275 54.2316 3.45206 0 1 0 -0.00497455 0.00594685 0.0119289 -1.74951 -27.2908 9.30917 
4422 277 2 12.01 0.11 4.76435 6.70892 2.27717 103.129 6.70892 100.642 2 0 2 -0.00179954 -0.00498339 0.000433558 23.2825 35.028 -8.38772 
4432 277 3 1.008 0.03 5.66336 7.09179 2.7421 104.028 7.09179 101.107 2 0 2 0.00872619 -0.00795209 0.00713114 12.4015 -10.1498 -0.342493 
4430 277 3 1.008 0.03 4.09483 7.13054 2.98403 102.46 7.13054 101.349 2 0 2 -0.0183045 0.00586891 -0.0147319 -26.5009 -5.03051 6.20953 
8369 524 1 16 -0.4 0.96117 2.07413 0.714666 99.3259 100.439 -48.4677 2 2 -1 0.00270501 0.00207914 0.00319273 16.9104 12.2379 -11.492 
8376 524 3 1.008 0.03 2.20797 0.539228 0.886809 100.573 98.9039 -48.2955 2 2 -1 -0.00584694 0.028612 -0.000221054 20.2786 5.96173 4.09337 
8371 524 2 12.01 0.14 2.24897 1.62919 1.04735 100.614 99.9939 -48.135 2 2 -1 -0.000744365 -0.00578864 0.0119885 16.5911 -20.6633 -18.2301 
8383 524 3 1.008 0.03 6.44275 2.9267 0.929184 104.807 101.291 -48.2532 2 2 -1 -0.00998785 0.0280587 -0.007491 -2.1213 -1.22525 -9.56216 
4418 277 1 16 -0.4 4.66339 7.35187 1.01123 103.028 7.35187 99.3759 2 0 2 -0.00403657 0.00311545 -0.000352359 -19.1097 -4.46937 12.3997 
8375 524 3 1.008 0.03 2.39088 1.77327 2.11078 100.756 100.138 -47.0716 2 2 -1 0.0149244 0.00156144 0.00350959 10.902 5.70525 4.07356 
912 57 3 1.008 0.03 0.532104 1.8278 4.24681 49.7145 1.8278 -44.9355 1 0 -1 -0.0116071 -0.00959126 -0.00274781 32.0805 -1.00583 -29.2873 
5583 349 3 1.008 0.03 7.44538 5.09798 7.26435 7.44538 5.09798 7.26435 0 0 0 0.0177926 0.0149259 -0.0229135 14.1916 -9.05329 1.45107 
8384 524 3 1.008 0.03 5.9281 1.2405 0.470464 104.293 99.6052 -48.7119 2 2 -1 -0.0123787 0.0147631 -0.00440128 -16.3404 48.9601 -2.10067 
4426 277 3 1.008 0.03 6.56891 7.93937 0.458615 104.934 7.93937 98.8233 2 0 2 0.028171 0.00269441 0.0307686 -11.0149 -6.58627 5.34401 
526 33 3 1.008 0.03 12.9524 1.02283 1.93498 111.317 1.02283 -47.2474 2 0 -1 -0.0185209 0.0310332 0.00819179 30.7334 -3.41069 6.91943 
3022 189 3 1.008 0.03 9.32849 5.49109 4.17192 9.32849 -43.6913 53.3543 0 -1 1 0.00486405 -0.0297472 0.0265356 -30.2395 -10.6129 17.7509 
5580 349 3 1.008 0.03 9.62193 8.60495 3.23962 9.62193 8.60495 3.23962 0 0 0 0.0155799 0.00164743 -0.0206953 -15.6307 9.3082 -3.92214 
520 33 3 1.008 0.03 15.8099 3.61307 4.20665 114.175 3.61307 -44.9757 2 0 -1 0.0102295 0.0131552 0.0337148 -17.3664 -4.70452 12.6391 
513 33 1 16 -0.4 14.6212 2.77136 5.70559 112.986 2.77136 -43.4768 2 0 -1 0.0006956 0.00335266 -0.00355902 -9.71646 -28.0776 29.6024 
521 33 3 1.008 0.03 12.8765 2.75504 3.83784 111.241 2.75504 -45.3445 2 0 -1 0.0170975 -0.00166937 -0.00444659 -4.218 -7.36762 13.1776 
527 33 3 1.008 0.03 13.5382 2.21432 0.940286 111.903 2.21432 -48.2421 2 0 -1 -0.0269321 0.000751585 0.00354009 21.053 -11.5891 14.6655 
514 33 1 16 -0.4 14.6191 2.13389 2.76476 112.984 2.13389 -46.4176 2 0 -1 -0.00602378 0.00401861 -0.00334884 -12.5459 5.021 15.4618 
516 33 2 12.01 0.14 13.8577 3.09814 3.55684 112.222 3.09814 -45.6255 2 0 -1 0.00406605 -0.00222871 0.000874287 4.96528 1.22171 -68.0513 
515 33 2 12.01 0.14 14.7763 3.60166 4.63581 113.141 3.60166 -44.5465 2 0 -1 0.000178517 0.00144214 -0.00164565 24.0582 49.8116 -25.3534 
518 33 2 12.01 0.11 13.9498 1.48046 1.68713 112.315 1.48046 -47.4952 2 0 -1 0.00108014 -0.00222005 0.00806096 -48.2758 27.6852 -14.1844 
7564 473 3 1.008 0.03 11.0757 6.11259 5.87516 11.0757 153.66 104.24 0 3 2 0.0246469 0.0252535 0.000784588 -2.02938 -10.5088 1.96778 
7554 473 1 16 -0.4 15.9414 7.98568 4.69449 15.9414 155.533 103.059 0 3 2 -0.000563498 -0.00157362 -0.00219441 -15.5707 26.5675 9.78523 
7563 473 3 1.008 0.03 11.4504 6.24061 4.15593 11.4504 153.788 102.521 0 3 2 0.00265508 -0.0187481 0.0119822 -2.70843 -5.23378 -18.0729 
7553 473 1 16 -0.4 12.8347 7.16584 5.48094 12.8347 154.713 103.846 0 3 2 0.000422439 0.00219313 0.0012543 -15.8601 -11.7507 -17.7063 
7557 473 2 12.01 0.11 11.4804 6.73696 5.09555 11.4804 154.284 103.46 0 3 2 0.000444536 0.00429136 -0.000408519 30.151 54.9583 38.9082 
7555 473 2 12.01 0.14 13.5218 7.90874 4.45711 13.5218 155.456 102.822 0 3 2 0.0041235 -0.00630254 -0.00281082 -14.3128 -29.4397 23.1552 
7559 473 3 1.008 0.03 13.8987 7.24093 3.69623 13.8987 154.788 102.061 0 3 2 0.0186674 0.00879002 -0.0171819 -4.36541 -5.07308 -8.18352 
517 33 2 12.01 0.11 15.4931 3.11452 6.74565 113.858 3.11452 -42.4367 2 0 -1 -0.00455717 0.00254858 0.00159269 36.1503 53.0507 -6.0449 
7565 473 3 1.008 0.03 10.8711 7.68086 5.17334 10.8711 155.228 103.538 0 3 2 -0.00968136 0.00464955 -0.00616838 6.98085 -24.5239 -15.5249 
525 33 3 1.008 0.03 16.5405 2.94374 6.51165 114.905 2.94374 -42.6707 2 0 -1 0.0024811 0.00816624 -0.00663651 -0.442615 -13.9168 -3.16588 
519 33 3 1.008 0.03 14.6067 4.68346 4.91884 112.971 4.68346 -44.2635 2 0 -1 0.0122863 0.0258798 -0.0060569 -6.76936 -26.365 -8.84645 
9025 565 1 16 -0.4 9.25385 8.60176 0.48838 9.25385 -138.945 98.8531 0 -3 2 -0.0018749 -0.00195961 -0.00319272 10.9805 8.14799 1.55854 
522 33 3 1.008 0.03 13.6324 3.91648 2.83224 111.997 3.91648 -46.3501 2 0 -1 0.000308773 0.00486785 0.0113945 6.2799 -10.2188 17.4307 
7304 457 3 1.008 0.03 15.3257 5.03708 1.19685 15.3257 103.402 1.19685 0 2 0 -0.0281455 0.0223778 -0.00202214 6.82365 -1.36013 18.4175 
3017 189 3 1.008 0.03 9.61578 5.46115 2.24688 9.61578 -43.7212 51.4292 0 -1 1 0.00917908 0.0100439 -0.0246912 35.9935 38.2766 -18.7095 
7560 473 3 1.008 0.03 12.7886 8.55676 4.01866 12.7886 156.104 102.383 0 3 2 -0.0255504 0.0194588 -0.0316466 -3.53129 12.8059 -8.13391 
3012 189 2 12.01 0.14 9.07167 4.72114 1.78352 9.07167 -44.4612 50.9659 0 -1 1 -0.000807697 -0.00306836 -0.00241065 -79.5868 -26.7733 13.0256 
528 33 3 1.008 0.03 14.64 0.813519 1.17077 113.005 0.813519 -48.0116 2 0 -1 -0.0136394 0.00957165 0.00979253 -4.4833 -3.08163 -0.598996 
3019 189 3 1.008 0.03 10.8478 1.23549 1.01358 10.8478 -47.9469 50.1959 0 -1 1 0.0248258 0.00603092 -0.0172311 16.5939 5.15808 1.12578 
7305 457 3 1.008 0.03 13.0853 4.8171 0.913827 13.0853 103.182 0.913827 0 2 0 -0.00690491 -0.0046613 0.00688228 -12.8592 -5.11705 15.0794 
3015 189 3 1.008 0.03 10.7784 3.6829 1.24054 10.7784 -45.4994 50.4229 0 -1 1 0.00443268 -0.0265175 -0.00648646 48.6793 -2.20256 18.5697 
523 33 3 1.008 0.03 15.5609 4.22483 6.78487 113.926 4.22483 -42.3975 2 0 -1 0.0348016 0.00338739 0.0153315 -8.63661 -14.2564 9.85926 
5436 340 3 1.008 0.03 12.9421 4.57031 7.21496 -36.2402 4.57031 -41.9674 -1 0 -1 -0.0101156 -0.0108473 -0.00652974 0.438086 -3.88273 -26.5295 
9026 565 1 16 -0.4 12.202 8.55072 0.630496 12.202 -138.996 98.9952 0 -3 2 0.00258552 -0.00395561 0.00596896 0.914976 11.0368 -44.6929 
3011 189 2 12.01 0.14 9.82145 3.76271 0.912707 9.82145 -45.4196 50.0951 0 -1 1 0.00752796 0.000805013 -0.00129885 -11.4799 -1.53747 -38.0965 
3009 189 1 16 -0.4 9.25638 2.48919 0.937952 9.25638 -46.6932 50.1203 0 -1 1 0.00580896 5.85904e-05 -0.000509284 -34.4987 -15.0628 5.79126 
1566 98 3 1.008 0.03 17.1384 0.975998 3.136 115.503 50.1583 -46.0463 2 1 -1 -0.0102407 -0.0137893 -0.0063887 -9.40005 3.60156 -20.651 
5664 354 3 1.008 0.03 22.3339 0.834921 7.06317 -26.8484 50.0173 7.06317 -1 1 0 -0.0120309 0.00341763 -0.00378919 -7.13966 -5.90409 -20.6035 
7566 473 3 1.008 0.03 17.9127 8.37474 5.10061 17.9127 155.922 103.465 0 3 2 -0.0062034 -0.00993549 -0.0244636 -23.9566 21.9552 -25.3632 
10325 649 8 19 -0.16 20.1074 6.484 6.82577 20.1074 6.484 6.82577 0 0 0 -0.00288691 0.00231322 -0.00180583 -43.7965 20.1565 -10.8771 
7808 488 3 1.008 0.03 24.9016 8.57262 3.09523 74.0839 8.57262 3.09523 1 0 0 0.00619068 -0.00485568 -0.00497537 2.93049 -18.0272 -7.06904 
5654 354 2 12.01 0.11 22.2156 0.804322 5.95078 -26.9667 49.9867 5.95078 -1 1 0 -0.0053992 0.00336544 0.000537738 26.2377 8.47572 12.1812 
5649 354 1 16 -0.4 24.7014 3.50943 4.19818 -24.4809 52.6918 4.19818 -1 1 0 -0.00228744 -0.000970648 -0.00350902 26.6967 48.264 0.0240778 
5655 354 3 1.008 0.03 23.6188 3.08037 2.40757 -25.5636 52.2627 2.40757 -1 1 0 -0.00504914 0.0152389 0.021426 -5.75779 10.0287 -0.0199807 
5651 354 2 12.01 0.14 24.0087 2.66265 3.3281 -25.1736 51.845 3.3281 -1 1 0 -0.00201804 0.000381359 -0.00961292 22.6286 -36.6197 -25.8563 
5652 354 2 12.01 0.14 23.0132 1.7638 4.00779 -26.1692 50.9462 4.00779 -1 1 0 -0.00689048 0.00173848 0.00264802 -14.6364 -3.29361 1.09128 
10322 649 6 16 -0.53 23.0101 4.42622 6.05207 23.0101 4.42622 6.05207 0 0 0 0.00464897 0.00824724 0.0054543 -1.81076 -7.83691 1.14714 
10312 649 4 14.01 -0.66 20.9878 4.65476 4.58379 20.9878 4.65476 4.58379 0 0 0 0.00418598 -0.00902677 -0.00245538 -32.3272 1.1043 -29.2889 
10320 649 5 32.06 1.02 21.9963 5.32571 5.53144 21.9963 5.32571 5.53144 0 0 0 0.00227591 -0.00273337 -0.0011272 28.9526 20.1204 -7.07006 
5657 354 3 1.008 0.03 22.0011 2.00453 3.68841 -27.1813 51.1869 3.68841 -1 1 0 -0.00343277 -0.0196176 0.00240942 -2.4962 11.3977 6.57812 
10313 649 5 32.06 1.02 20.0189 5.29421 3.45123 20.0189 5.29421 3.45123 0 0 0 0.000474814 0.00370831 -0.0020753 34.5255 -52.9658 13.3919 
10458 669 9 24.305 2 24.4667 3.05149 6.18421 -24.7156 52.2338 6.18421 -1 1 0 0.00110823 0.00394117 -0.00377023 2.38428 1.08002 -13.6 
5658 354 3 1.008 0.03 23.0685 0.765792 3.5893 -26.1138 49.9481 3.5893 -1 1 0 -0.0129548 -0.00648308 0.00294451 9.83377 -5.56967 3.73711 
5650 354 1 16 -0.4 23.1925 1.78518 5.43139 -25.9898 50.9675 5.43139 -1 1 0 -0.00699628 0.00202993 -0.000191192 -25.1601 -33.8201 -4.46845 
10314 649 6 16 -0.53 19.3863 6.52544 3.74932 19.3863 6.52544 3.74932 0 0 0 -0.00102556 0.000861614 0.00380357 -18.2701 23.1486 18.3158 
10319 649 8 19 -0.16 19.0806 2.80733 3.44323 19.0806 2.80733 3.44323 0 0 0 -0.00130213 0.00351048 -0.000458862 35.0085 -37.9868 -11.547 
10315 649 6 16 -0.53 20.5857 5.18168 2.14083 20.5857 5.18168 2.14083 0 0 0 0.00459055 0.00711105 -0.001451 7.82055 -4.67866 -11.6813 
10316 649 7 12.01 0.35 18.6648 4.0088 3.42646 18.6648 4.0088 3.42646 0 0 0 -0.00482762 0.00284648 0.00425335 -11.4785 23.6741 -2.80374 
10317 649 8 19 -0.16 17.8538 4.06414 2.37676 17.8538 4.06414 2.37676 0 0 0 -0.00194419 -0.00303849 0.00429379 0.33211 10.619 4.06334 
10321 649 6 16 -0.53 22.4889 6.61953 5.16006 22.4889 6.61953 5.16006 0 0 0 0.000795403 0.000599627 0.00172418 -2.1386 9.8841 -7.90295 
10318 649 8 19 -0.16 17.9393 3.9918 4.50556 17.9393 3.9918 4.50556 0 0 0 -0.00247894 -0.0017908 0.00168299 -14.2866 20.6199 15.0867 
5662 354 3 1.008 0.03 21.1993 1.14545 5.71246 -27.983 50.3278 5.71246 -1 1 0 -0.0108477 0.00991437 -0.0107674 3.25825 -4.71249 1.02611 
1558 98 2 12.01 0.11 17.3691 0.655731 4.11684 115.734 49.8381 -45.0655 2 1 -1 -0.00281466 -0.00631081 0.00224408 53.0055 7.88334 19.7252 
10323 649 7 12.01 0.35 21.0262 5.61875 6.97485 21.0262 5.61875 6.97485 0 0 0 0.00324474 -0.00227654 -0.00373226 45.1723 -27.2081 72.2547 
1568 98 3 1.008 0.03 18.4564 0.436424 4.13791 116.821 49.6188 -45.0444 2 1 -1 0.0260717 0.0084551 0.00442907 -13.3605 -0.470405 -5.80512 
6236 390 3 1.008 0.03 24.0274 5.20461 0.503693 24.0274 -43.9777 148.051 0 -1 3 -0.00622238 -0.0068759 0.0215978 -4.22629 -1.74898 -13.5586 
8267 517 3 1.008 0.03 20.3824 1.20096 1.01137 118.747 1.20096 1.01137 2 0 0 -0.00250944 -0.011185 -0.000299777 -9.5707 22.518 7.93022 
1567 98 3 1.008 0.03 17.3281 1.50159 4.78933 115.693 50.6839 -44.393 2 1 -1 0.0156129 0.00755115 0.00898779 -12.9362 3.55081 3.85892 
5660 354 3 1.008 0.03 24.9553 4.97793 2.67266 -24.227 54.1603 2.67266 -1 1 0 -0.024305 0.000544509 -0.000940025 -7.64698 -0.763885 -17.8373 
4951 310 3 1.008 0.03 21.0873 8.47635 3.46581 70.2697 8.47635 3.46581 1 0 0 0.00671269 -0.00557089 -0.00415583 -2.35341 24.3696 -9.38492 
5656 354 3 1.008 0.03 24.7888 1.97206 2.95838 -24.3935 51.1544 2.95838 -1 1 0 0.0015796 -0.0173714 -0.0252371 -6.85408 6.25898 2.12804 
1565 98 3 1.008 0.03 19.0404 1.09969 7.2211 117.405 50.282 -41.9612 2 1 -1 0.00730745 0.00961605 -0.00735243 -8.51307 10.8384 -11.3053 
10326 649 8 19 -0.16 20.543 4.44806 7.42832 20.543 4.44806 7.42832 0 0 0 0.00318318 0.00158755 -0.0027613 -8.65044 22.3391 -5.58107 
5581 349 3 1.008 0.03 7.98649 9.31066 2.78675 7.98649 9.31066 2.78675 0 0 0 -0.0122409 -0.00471832 -0.00586044 7.11029 -4.74942 8.923 
5576 349 3 1.008 0.03 6.27882 8.65499 4.84616 6.27882 8.65499 4.84616 0 0 0 0.00665025 0.00515672 -0.000878719 -5.39926 11.7521 -1.24844 
5575 349 3 1.008 0.03 7.46581 9.36038 5.95878 7.46581 9.36038 5.95878 0 0 0 0.0135193 -0.00923677 0.0256943 12.0956 18.633 2.70581 
8472 530 3 1.008 0.03 2.82938 10.5783 6.01498 101.194 256.49 6.01498 2 5 0 -0.0245729 0.0113509 0.00780851 -9.10075 -6.60933 -6.979 
8476 530 3 1.008 0.03 1.21653 9.27494 7.39798 99.5812 255.187 7.39798 2 5 0 0.00836504 0.0173249 0.0197048 -1.91141 -14.2864 5.21738 
8469 530 2 12.01 0.11 0.552509 9.19471 6.54478 98.9172 255.106 6.54478 2 5 0 0.00428014 0.0028169 -0.00238155 -1.48677 44.3565 6.58476 
6976 436 3 1.008 0.03 3.60618 12.9081 6.32411 52.7885 62.0904 104.689 1 1 2 0.00518443 -0.00217997 0.0189113 -2.73863 3.26761 -6.76097 
8465 530 1 16 -0.4 1.32941 9.23026 5.39316 99.6941 255.142 5.39316 2 5 0 0.000462779 -0.00387614 0.00267808 8.16651 -14.1967 -29.3448 
8467 530 2 12.01 0.14 2.20768 10.326 5.13324 100.572 256.238 5.13324 2 5 0 -0.00511635 0.00431169 0.00126122 -9.09922 17.4456 15.6522 
8466 530 1 16 -0.4 3.97706 10.972 3.76992 102.342 256.884 3.76992 2 5 0 -0.00139954 -0.00283086 -0.0036562 10.5261 9.00844 1.06548 
8478 530 3 1.008 0.03 5.58575 11.5853 2.5745 103.95 257.497 2.5745 2 5 0 -0.0244821 0.019508 0.0208377 8.44932 8.92902 8.12939 
8480 530 3 1.008 0.03 4.36414 10.7388 1.82669 102.729 256.651 1.82669 2 5 0 -0.00686593 0.0160388 -0.0240095 -0.789302 -14.527 -9.847 
8470 530 2 12.01 0.11 4.92667 10.7555 2.74516 103.291 256.667 2.74516 2 5 0 0.00279415 0.00412625 0.00454046 -1.31216 -14.7799 5.46321 
8479 530 3 1.008 0.03 5.53368 9.84067 2.95612 103.898 255.752 2.95612 2 5 0 -0.023365 -0.0213683 -0.000672002 -10.5253 13.6693 -11.4574 
8468 530 2 12.01 0.14 3.15049 9.85777 4.00895 101.515 255.77 4.00895 2 5 0 -0.0119587 -0.00696483 0.00557972 -39.8457 25.6852 -33.3939 
8473 530 3 1.008 0.03 3.76728 9.03919 4.2721 102.132 254.951 4.2721 2 5 0 -0.00745922 -0.00190318 -0.0141614 6.60611 -20.2906 9.1224 
8095 506 3 1.008 0.03 5.98545 14.9557 2.98337 5.98545 -83.409 -46.199 0 -2 -1 -0.00331519 -0.0284112 0.0122088 -4.35563 -3.03383 0.960843 
8089 506 3 1.008 0.03 4.10622 16.4117 1.79067 4.10622 -81.953 -47.3917 0 -2 -1 -0.0136811 0.00766171 -0.0198671 -1.84396 7.42441 -2.03276 
8474 530 3 1.008 0.03 2.5191 9.60353 3.08814 100.884 255.515 3.08814 2 5 0 0.000699006 -0.0128025 -0.00105554 23.8747 5.73558 27.5663 
1326 83 3 1.008 0.03 7.56537 13.0824 5.73622 56.7477 13.0824 -43.4461 1 0 -1 -0.00754609 -0.00297904 0.00802246 7.35847 -9.67367 -4.89856 
2621 164 3 1.008 0.03 6.79355 13.4253 1.4307 -42.3888 62.6076 -47.7516 -1 1 -1 -0.0225445 -0.0344847 -0.0012915 -8.34581 0.336974 2.051 
6974 436 3 1.008 0.03 2.84116 14.3487 7.07373 52.0235 63.531 105.438 1 1 2 0.0326035 0.0244688 0.00193415 -8.72252 -11.4026 -0.0627864 
8471 530 3 1.008 0.03 1.63465 11.2762 4.8771 99.9993 257.188 4.8771 2 5 0 -0.0204033 0.00599283 -0.0187049 15.9091 -29.5537 4.28268 
8096 506 3 1.008 0.03 5.06648 15.2998 4.43714 5.06648 -83.0649 -44.7452 0 -2 -1 0.0234872 -0.0148491 0.0144188 0.336422 -0.273245 6.73275 
8094 506 3 1.008 0.03 5.21831 13.6117 3.91085 5.21831 -84.753 -45.2715 0 -2 -1 -0.05303 -0.00953571 0.0127572 4.21485 5.06077 -1.00574 
8086 506 2 12.01 0.11 5.1118 14.6492 3.57189 5.1118 -83.7155 -45.6105 0 -2 -1 -0.004106 -0.00318374 0.0076474 6.85882 -0.804541 -0.477351 
8082 506 1 16 -0.4 3.91895 14.7379 2.83959 3.91895 -83.6268 -46.3428 0 -2 -1 0.00170222 -0.0072536 -0.00266816 -12.2325 4.48148 8.12103 
8084 506 2 12.01 0.14 3.48581 16.076 2.6174 3.48581 -82.2887 -46.5649 0 -2 -1 -0.00233287 0.00214833 -0.00280297 -16.7446 10.1468 -16.391 
8087 506 3 1.008 0.03 1.47742 15.7634 3.07898 1.47742 -82.6013 -46.1034 0 -2 -1 -0.0194563 -0.028395 -0.00843296 -23.6154 -16.786 29.272 
8083 506 2 12.01 0.14 1.97335 16.0705 2.22866 1.97335 -82.2942 -46.9537 0 -2 -1 0.00197215 0.00628949 0.00360774 52.353 -1.67078 -8.92478 
8088 506 3 1.008 0.03 1.85035 15.329 1.45664 1.85035 -83.0357 -47.7257 0 -2 -1 0.0151581 -0.0177764 0.00709352 -10.8603 -3.64668 -8.24324 
6966 436 2 12.01 0.11 3.25391 13.3439 7.25321 52.4363 62.5262 105.618 1 1 2 0.00195369 0.00678057 -0.00139563 25.1313 40.7946 -25.9503 
9035 565 3 1.008 0.03 8.44154 10.4012 0.647685 8.44154 -137.146 99.0124 0 -3 2 0.00743014 0.00780461 -0.0305499 -13.7704 10.5171 0.0166127 
5573 349 2 12.01 0.11 8.66136 9.02245 3.61646 8.66136 9.02245 3.61646 0 0 0 0.0012905 -0.00516092 0.00587854 8.12642 -31.3638 -14.6258 
5579 349 3 1.008 0.03 8.93024 9.88218 4.17634 8.93024 9.88218 4.17634 0 0 0 0.0140959 -0.0152584 0.00503872 3.08828 17.9477 9.84444 
7562 473 3 1.008 0.03 14.6356 8.88953 6.04703 14.6356 156.437 104.412 0 3 2 -0.0169658 0.0276458 0.0118935 -5.48523 3.21929 33.1441 
7556 473 2 12.01 0.14 14.7013 8.65562 5.03339 14.7013 156.203 103.398 0 3 2 -0.00103651 0.0021317 -0.00325994 11.3908 10.4211 -54.7869 
1315 83 2 12.01 0.14 10.8794 10.1601 6.74332 60.0617 10.1601 -42.439 1 0 -1 -0.000621767 -0.00028363 0.00915357 -40.0791 7.36306 -8.14569 
7561 473 3 1.008 0.03 14.6023 9.62533 4.4907 14.6023 157.172 102.855 0 3 2 -0.00768448 0.00308548 -0.000446188 12.0293 -11.3909 10.2314 
6668 417 3 1.008 0.03 12.4318 16.0711 4.91151 110.796 114.436 152.459 2 2 3 -0.0188362 0.0323697 -0.00947968 -12.2938 -13.5862 -22.8635 
7157 448 2 12.01 0.11 13.9055 14.1364 6.86874 13.9055 -84.2283 56.0511 0 -2 1 -0.00252985 0.00239238 -0.000503947 4.41771 15.5118 -4.65091 
1319 83 3 1.008 0.03 11.7538 10.0048 6.11736 60.9361 10.0048 -43.065 1 0 -1 0.00900546 0.00355741 -0.0181097 4.95029 -9.34047 4.12216 
1327 83 3 1.008 0.03 9.0931 13.827 5.998 58.2755 13.827 -43.1843 1 0 -1 0.00278548 -0.00829532 0.0107278 -3.20606 -6.80741 9.6748 
1320 83 3 1.008 0.03 9.99573 9.58299 6.2942 59.1781 9.58299 -42.8881 1 0 -1 0.0047534 -0.00785822 0.0193332 33.3327 11.0647 19.3898 
1314 83 1 16 -0.4 9.07202 11.8452 6.55188 58.2544 11.8452 -42.6305 1 0 -1 -0.00677532 0.00511326 0.000717161 26.6875 -15.1411 -9.15761 
1328 83 3 1.008 0.03 9.05495 12.9019 4.65683 58.2373 12.9019 -44.5255 1 0 -1 0.0221179 -0.00222778 -0.0218902 -11.8077 -17.9545 5.64055 
1318 83 2 12.01 0.11 8.64808 12.8738 5.68472 57.8304 12.8738 -43.4976 1 0 -1 0.00504527 0.00105438 -0.00953625 5.69656 43.9754 -6.84681 
1322 83 3 1.008 0.03 10.9224 12.0094 5.59961 60.1047 12.0094 -43.5827 1 0 -1 -0.0217533 -0.0124945 0.00196525 1.42196 -2.51472 4.21695 
1316 83 2 12.01 0.14 10.5212 11.6653 6.56141 59.7035 11.6653 -42.6209 1 0 -1 -0.00524935 0.0043682 0.011489 -26.8707 1.83587 -1.68519 
8334 521 3 1.008 0.03 12.5423 11.8747 2.24551 110.907 61.0571 51.4279 2 1 1 0.0172114 -0.00177605 -0.0223593 2.15367 -18.0768 -10.4937 
8326 521 2 12.01 0.11 11.4684 11.865 2.05812 109.833 61.0473 51.2405 2 1 1 0.000613796 -0.00475402 -0.00409776 -30.9092 3.36416 21.0915 
8335 521 3 1.008 0.03 11.2667 12.8433 2.5168 109.631 62.0257 51.6991 2 1 1 0.00714094 0.0140145 0.00691189 -12.4133 -10.3807 3.09666 
8336 521 3 1.008 0.03 10.8755 11.0238 2.57913 109.24 60.2062 51.7615 2 1 1 -0.00665208 0.0103268 0.00870674 28.7924 31.1136 -12.4502 
8322 521 1 16 -0.4 10.9917 11.9586 0.72149 109.356 61.141 49.9038 2 1 1 0.00122041 0.00270549 0.00481573 18.0679 6.81981 -3.81899 
6667 417 3 1.008 0.03 12.9695 14.8033 3.74662 111.334 113.168 151.294 2 2 3 0.0275964 0.00064857 -0.00731176 -14.9434 15.3596 1.05201 
6661 417 2 12.01 0.11 12.1137 15.4831 3.99614 110.478 113.848 151.543 2 2 3 -0.0045533 -0.00642713 -0.00011808 17.0659 -24.0248 33.1443 
6662 417 2 12.01 0.11 15.9223 15.8095 2.52387 114.287 114.174 150.071 2 2 3 0.00164027 -0.00152014 -0.00319662 13.4779 -22.6732 -15.8566 
6672 417 3 1.008 0.03 16.0488 14.7889 2.97507 114.414 113.154 150.522 2 2 3 0.00077533 0.00377808 0.00379883 -6.01252 23.6604 -0.899587 
6670 417 3 1.008 0.03 15.6781 15.5666 1.48494 114.043 113.931 149.032 2 2 3 -0.00703364 0.0116338 0.00383835 2.28437 -1.59039 2.92642 
7164 448 3 1.008 0.03 13.0508 14.7706 6.95628 13.0508 -83.5941 56.1386 0 -2 1 -0.0132012 -0.0254027 -0.0149595 -17.4711 1.26897 -1.39439 
1321 83 3 1.008 0.03 10.9172 12.3252 7.33764 60.0995 12.3252 -41.8447 1 0 -1 0.00232881 0.0232312 -0.00111363 5.82812 -4.60652 -1.01614 
7165 448 3 1.008 0.03 14.6696 14.9671 6.85121 14.6696 -83.3976 56.0336 0 -2 1 -0.0037762 -0.021302 0.0015742 -2.3191 -33.2732 -3.37864 
6669 417 3 1.008 0.03 11.2754 14.7985 4.28038 109.64 113.163 151.827 2 2 3 0.0194447 -0.00387716 -0.0153534 12.7141 14.6253 -4.92639 
7163 448 3 1.008 0.03 13.7497 13.5162 5.96558 13.7497 -84.8485 55.1479 0 -2 1 -0.0159157 0.0111011 0.019344 10.7843 15.3885 0.789922 
9040 565 3 1.008 0.03 13.7778 9.5345 1.32504 13.7778 -138.013 99.6897 0 -3 2 -0.00907153 -0.00795754 0.00928938 12.2199 14.4353 17.0657 
6665 417 3 1.008 0.03 13.8194 16.5311 1.25176 112.184 114.896 148.799 2 2 3 -0.0280179 -0.0153513 -0.00995241 0.339909 9.26419 7.22239 
6658 417 1 16 -0.4 14.8072 16.5501 3.08778 113.172 114.915 150.635 2 2 3 0.00505266 0.000447635 -0.00336784 27.442 -14.7701 14.4305 
7159 448 3 1.008 0.03 14.9279 11.7932 7.04949 14.9279 -86.5715 56.2318 0 -2 1 0.000391461 -0.0319269 -0.0108421 0.0523517 -4.06716 17.3794 
6657 417 1 16 -0.4 11.7479 16.2894 2.90694 110.113 114.654 150.454 2 2 3 0.00182659 -0.00745488 -0.00360351 -1.38616 16.085 -2.01509 
9030 565 2 12.01 0.11 13.2307 9.51631 0.418709 13.2307 -138.031 98.7834 0 -3 2 -6.03632e-05 0.00510011 -0.00140265 -27.6385 -20.8344 16.5202 
4954 310 3 1.008 0.03 20.5705 9.17729 0.945122 69.7528 9.17729 0.945122 1 0 0 -0.00294891 0.0266486 -0.00405908 15.3089 11.1858 7.19328 
7558 473 2 12.01 0.11 16.9947 8.9488 4.72534 16.9947 156.496 103.09 0 3 2 -0.00102777 -0.00510404 -6.3816e-05 23.4491 -37.5701 29.9752 
7567 473 3 1.008 0.03 17.0897 9.43402 3.75521 17.0897 156.981 102.12 0 3 2 0.00638096 0.0222119 0.00559999 7.71907 0.508066 -0.377592 
7795 488 2 12.01 0.14 24.9343 11.8325 1.2076 74.1167 11.8325 1.2076 1 0 0 0.00459004 -0.0003881 0.00119665 27.2822 4.63412 -4.41464 
7798 488 2 12.01 0.11 24.655 9.36865 3.75802 73.8373 9.36865 3.75802 1 0 0 -0.00288743 0.00791567 -0.00435445 -14.2771 5.88841 15.6872 
7794 488 1 16 -0.4 24.2804 10.4681 2.92735 73.4627 10.4681 2.92735 1 0 0 -0.00493485 0.000240026 -0.00304834 1.24208 5.28818 10.5133 
10150 638 6 16 -0.53 24.1423 12.2944 6.72385 24.1423 12.2944 55.9062 0 0 1 -0.0024442 -0.00155029 -0.0050353 0.627048 15.0676 -11.3226 
7793 488 1 16 -0.4 23.9699 12.7817 1.67273 73.1522 12.7817 1.67273 1 0 0 0.000903726 -0.00385848 -0.00388573 -8.11455 -2.50525 13.2281 
7797 488 2 12.01 0.11 24.1886 14.1204 1.19627 73.3709 14.1204 1.19627 1 0 0 -0.0012931 0.000918083 0.00838577 30.9151 -32.0919 -35.3999 
10148 638 5 32.06 1.02 23.7814 13.2851 5.72253 23.7814 13.2851 54.9049 0 0 1 -0.000499442 -0.000327505 -0.00193953 14.3041 -9.85761 4.14849 
7807 488 3 1.008 0.03 23.7626 9.07477 4.34697 72.945 9.07477 4.34697 1 0 0 -0.0171757 0.00383085 0.00320799 13.4074 0.155838 -3.95963 
10151 638 7 12.01 0.35 22.2965 14.0314 6.42848 22.2965 14.0314 55.6108 0 0 1 3.14717e-05 0.00469191 0.0010973 -36.7616 -74.2085 -29.8936 
9825 616 5 32.06 1.02 19.6376 13.1312 2.19668 68.8199 13.1312 2.19668 1 0 0 0.00710437 -0.000935483 -0.00375258 -8.7377 -17.5591 37.2775 
9827 616 6 16 -0.53 18.9549 11.8629 2.18487 68.1373 11.8629 2.18487 1 0 0 -0.00554418 0.00563214 0.00541889 -0.540058 3.37989 -9.94424 
4952 310 3 1.008 0.03 19.8384 9.68089 3.24302 69.0208 9.68089 3.24302 1 0 0 1.66111e-05 0.00901042 -0.0116003 -14.767 -2.52911 -19.9186 
4957 310 3 1.008 0.03 21.0608 9.55787 5.52072 70.2431 9.55787 5.52072 1 0 0 0.0101187 0.0229766 0.0173105 1.9851 6.18072 5.76847 
4955 310 3 1.008 0.03 21.8233 11.1881 5.77484 71.0056 11.1881 5.77484 1 0 0 0.023623 0.0327409 -0.00154856 -10.5164 -8.32751 -0.608907 
4949 310 2 12.01 0.11 21.1365 10.5907 5.15666 70.3188 10.5907 5.15666 1 0 0 0.000995912 0.00718726 0.0062511 -7.38816 5.2628 -55.1298 
4945 310 1 16 -0.4 21.5774 10.5768 3.72986 70.7597 10.5768 3.72986 1 0 0 0.00342397 0.00406481 -0.00368261 -12.5855 -32.4132 26.4077 
10454 665 9 24.305 2 22.7155 11.8144 2.74975 71.8978 11.8144 2.74975 1 0 0 0.00115265 0.00151009 -0.00459746 0.136327 -7.73468 0.808326 
4956 310 3 1.008 0.03 20.1124 11.0488 5.11788 69.2948 11.0488 5.11788 1 0 0 0.0255334 -0.0242131 0.0117506 19.244 -7.98201 11.4265 
9826 616 6 16 -0.53 21.0851 12.9701 2.44019 70.2674 12.9701 2.44019 1 0 0 -0.00587889 0.00169832 0.00863495 -22.431 28.8301 -7.10599 
4947 310 2 12.01 0.14 20.8713 9.4854 3.01087 70.0536 9.4854 3.01087 1 0 0 -0.00174328 -0.00598427 0.000683719 40.6576 16.5711 59.7142 
10154 638 8 19 -0.16 21.5825 14.5482 5.41825 21.5825 14.5482 54.6006 0 0 1 0.00277416 0.000170776 -0.00334548 4.01601 20.0638 28.6255 
10149 638 6 16 -0.53 23.327 12.7733 4.41999 23.327 12.7733 53.6023 0 0 1 -0.00416726 0.00107954 0.00601032 4.88066 7.5619 11.8014 
4946 310 1 16 -0.4 21.9812 10.8067 1.2257 71.1635 10.8067 1.2257 1 0 0 0.00334959 -0.00126267 0.00648867 0.0615641 -15.3909 22.5476 
9817 616 4 14.01 -0.66 19.1384 14.057 1.05285 68.3208 14.057 1.05285 1 0 0 -0.00524375 -0.00553519 0.00245883 3.16043 16.5344 0.164126 
4948 310 2 12.01 0.14 21.4106 9.52064 1.60191 70.593 9.52064 1.60191 1 0 0 0.0022389 -0.00455578 0.00676269 -34.8208 -2.81363 -30.7017 
9828 616 7 12.01 0.35 18.8962 13.8633 3.78244 68.0785 13.8633 3.78244 1 0 0 -0.00303701 0.00243942 0.00100253 8.13356 -76.7314 13.633 
9829 616 8 19 -0.16 19.7679 13.5947 4.76781 68.9502 13.5947 4.76781 1 0 0 0.00900564 0.000117607 0.00127686 -10.2875 24.1576 -9.41776 
7803 488 3 1.008 0.03 23.3764 14.7831 1.47408 72.5588 14.7831 1.47408 1 0 0 0.0227348 -0.000438455 0.00461362 5.69555 10.4189 7.89874 