ITEM: TIMESTEP
3750000
ITEM: NUMBER OF ATOMS
10479
ITEM: BOX BOUNDS pp pp pp
4.0882558190751794e-01 4.9591174418091420e+01
4.0882558190751794e-01 4.9591174418091420e+01
4.0882558190751794e-01 4.9591174418091420e+01
ITEM: ATOMS id mol type mass q x y z xu yu zu ix iy iz vx vy vz fx fy fz 
418 27 1 16 -0.4 6.02313 3.18533 4.78989 6.02313 52.3677 53.9722 0 1 1 0.000610157 0.001115 0.00446132 -13.1804 -11.1369 1.75023 
605 38 3 1.008 0.03 7.37818 7.19406 1.2698 7.37818 56.3764 1.2698 0 1 0 0.01137 0.00318924 -0.00484356 -27.2923 -6.85758 -0.403173 
8155 510 3 1.008 0.03 2.74722 5.91319 3.82151 2.74722 55.0955 3.82151 0 1 0 -0.00321822 0.00499059 0.0136706 8.35083 15.8125 -9.27726 
8149 510 2 12.01 0.11 3.45756 6.75202 3.61259 3.45756 55.9344 3.61259 0 1 0 -0.00139782 0.0013314 0.00011359 -33.7555 -13.2909 37.6372 
8156 510 3 1.008 0.03 2.97115 7.53253 3.04315 2.97115 56.7149 3.04315 0 1 0 0.0215662 0.0308547 0.000264626 -0.722451 -3.13936 -12.5388 
430 27 3 1.008 0.03 3.97335 3.60396 4.37959 3.97335 52.7863 53.5619 0 1 1 0.003395 -0.00134589 -0.0159305 16.5361 -23.7485 -8.10837 
419 27 2 12.01 0.14 8.49564 3.28606 5.14646 8.49564 52.4684 54.3288 0 1 1 0.0093227 0.0018635 0.00254024 -30.2469 -16.4216 1.29453 
8157 510 3 1.008 0.03 4.28471 6.31381 3.11606 4.28471 55.4962 3.11606 0 1 0 0.000118196 0.014247 0.00319515 14.9089 1.5413 -7.68717 
420 27 2 12.01 0.14 7.26123 3.56625 4.24603 7.26123 52.7486 53.4284 0 1 1 -0.00215079 -0.00543252 -0.00344744 38.6783 46.6122 15.4558 
431 27 3 1.008 0.03 5.07136 4.35086 3.40339 5.07136 53.5332 52.5857 0 1 1 0.00406759 0.0175868 0.0258384 5.44769 -10.3944 -2.433 
422 27 2 12.01 0.11 4.94712 3.36681 3.87206 4.94712 52.5492 53.0544 0 1 1 -0.000151284 -0.000481178 -0.00807824 -12.3162 33.282 3.15101 
425 27 3 1.008 0.03 7.27753 4.65937 4.07737 7.27753 53.8417 53.2597 0 1 1 0.0108756 0.00447134 -0.0239838 -8.56829 -9.04821 13.2782 
432 27 3 1.008 0.03 4.90813 2.63804 3.04601 4.90813 51.8204 52.2284 0 1 1 -0.00787549 -0.00197469 0.0204449 -4.81526 -0.163947 11.8304 
426 27 3 1.008 0.03 7.49941 3.31735 3.26964 7.49941 52.4997 52.452 0 1 1 -0.0175815 -0.0121279 0.00783108 -3.19628 -27.6474 -33.5883 
423 27 3 1.008 0.03 8.10539 3.25801 6.13088 8.10539 52.4404 55.3132 0 1 1 0.00409408 0.0105563 -0.0136448 -3.83526 -4.03833 21.3994 
593 38 1 16 -0.4 6.87279 5.38237 1.75932 6.87279 54.5647 1.75932 0 1 0 -0.0081483 0.00359258 -0.00432509 19.2802 -15.87 8.74309 
8465 530 1 16 -0.4 1.17678 3.59547 5.51804 99.5415 249.507 5.51804 2 5 0 0.00321278 -0.00645267 0.00365753 10.9652 -0.358387 -4.07773 
604 38 3 1.008 0.03 6.10152 7.13471 2.43285 6.10152 56.3171 2.43285 0 1 0 0.0078783 -0.0129644 0.0272218 -10.2975 0.148606 -9.34225 
8147 510 2 12.01 0.14 4.47454 6.59784 5.79362 4.47454 55.7802 5.79362 0 1 0 0.00190349 -0.00781032 0.00242447 23.3707 -24.8172 0.700639 
10130 636 8 19 -0.16 0.951223 8.45587 2.4958 0.951223 8.45587 51.6782 0 0 1 0.00495384 -0.000654461 0.00647411 -9.87256 2.75275 14.0539 
8145 510 1 16 -0.4 3.70714 7.36245 4.87217 3.70714 56.5448 4.87217 0 1 0 -0.00112164 0.00171787 0.00292167 8.23617 -2.39015 -0.520273 
8473 530 3 1.008 0.03 2.01996 2.39976 3.48822 100.385 248.312 3.48822 2 5 0 -0.0030402 0.0139274 -0.0129168 2.92476 7.52882 -14.2345 
8151 510 3 1.008 0.03 4.26592 5.48186 5.73571 4.26592 54.6642 5.73571 0 1 0 0.0144189 -0.00972284 0.0179951 0.930587 32.3035 2.79693 
8152 510 3 1.008 0.03 5.54154 6.71332 5.53629 5.54154 55.8957 5.53629 0 1 0 -0.0205218 0.000624933 0.0284926 -9.62152 -2.38051 -3.52772 
8468 530 2 12.01 0.14 1.10592 1.94161 3.82276 99.4706 247.853 3.82276 2 5 0 -0.0029577 0.00737481 -0.00102632 -5.97357 36.4757 16.2011 
603 38 3 1.008 0.03 5.7389 6.72306 0.570857 5.7389 55.9054 0.570857 0 1 0 -0.0115908 -0.0329835 -0.00118635 16.2172 4.29426 40.8534 
600 38 3 1.008 0.03 8.18253 4.02329 0.764315 8.18253 53.2056 0.764315 0 1 0 0.00601565 -0.000553945 -0.0153864 -4.83676 6.12675 7.46827 
595 38 2 12.01 0.14 7.34355 4.71667 0.600683 7.34355 53.899 0.600683 0 1 0 0.000436022 0.00410092 -0.000150901 -10.6944 -10.0413 9.83904 
597 38 2 12.01 0.11 6.41389 6.65158 1.50109 6.41389 55.8339 1.50109 0 1 0 -0.00157813 0.00113479 0.00509213 26.8156 40.7743 -36.6117 
6972 436 3 1.008 0.03 1.83316 8.1459 7.05039 51.0155 57.3283 105.415 1 1 2 -0.0273044 -0.0080125 -0.00168213 -11.8024 -5.97037 27.0795 
601 38 3 1.008 0.03 5.71286 3.46894 1.14245 5.71286 52.6513 1.14245 0 1 0 0.00856898 -0.00545711 0.013023 0.781083 -13.9307 -6.04047 
6973 436 3 1.008 0.03 1.40712 7.84661 5.50605 50.5895 57.029 103.871 1 1 2 0.0105844 -0.0222465 -0.0100451 4.27185 -17.6714 -26.736 
8475 530 3 1.008 0.03 1.06509 5.03623 6.93421 99.4298 250.948 6.93421 2 5 0 -0.00657651 0.0261108 -0.00123506 -1.54977 14.917 4.61864 
8146 510 1 16 -0.4 4.62898 8.52162 7.35216 4.62898 57.704 7.35216 0 1 0 0.00274453 -0.00388954 -0.000428798 -4.1359 -12.6135 -5.27953 
8467 530 2 12.01 0.14 1.14866 2.18645 5.32997 99.5134 248.098 5.32997 2 5 0 0.00149145 -0.00224041 -0.000738772 -33.6957 -5.34909 16.0684 
8469 530 2 12.01 0.11 0.967211 3.97544 6.85528 99.3319 249.887 6.85528 2 5 0 -0.00194338 -0.00187021 -0.000979071 36.0737 -9.98125 -8.29079 
8471 530 3 1.008 0.03 1.99617 1.64227 5.75624 100.361 247.554 5.75624 2 5 0 0.00221327 0.0055591 0.00867183 1.47088 7.76771 2.61866 
2174 136 3 1.008 0.03 3.21496 0.827861 1.05637 101.58 0.827861 50.2387 2 0 1 0.013424 -0.00985129 0.0225476 0.338093 -15.5298 14.272 
8480 530 3 1.008 0.03 0.557544 3.50119 1.6473 98.9222 249.413 1.6473 2 5 0 -0.00188238 -0.0120213 -0.00766036 -9.5604 8.2037 -7.90088 
8148 510 2 12.01 0.14 4.35069 7.11506 7.25013 4.35069 56.2974 7.25013 0 1 0 0.00296562 0.00328747 -0.0115959 -32.5378 5.80601 -2.52051 
4431 277 3 1.008 0.03 1.98356 6.06283 0.417832 100.348 6.06283 98.7825 2 0 2 -0.00815364 0.0156972 0.0188046 15.6404 -4.10128 -11.6797 
8474 530 3 1.008 0.03 1.27054 0.916646 3.67312 99.6352 246.828 3.67312 2 5 0 0.00408289 0.0244347 0.00628396 -10.3502 -28.7579 -13.0548 
9295 581 3 1.008 0.03 7.64031 7.79304 7.25658 155.187 -41.3893 -41.9258 3 -1 -1 0.00298157 0.0221994 -0.0146363 14.3508 11.905 17.7251 
1559 98 3 1.008 0.03 13.0342 1.1185 6.32056 111.399 50.3009 -42.8618 2 1 -1 0.0141253 -0.00741322 0.00720238 7.30397 24.2612 5.75128 
417 27 1 16 -0.4 9.07054 2.01868 4.85958 9.07054 51.201 54.0419 0 1 1 0.00329391 0.00354838 -0.000964823 5.03857 -2.9515 -11.4366 
3022 189 3 1.008 0.03 15.1508 2.76301 2.58253 15.1508 -46.4193 51.7649 0 -1 1 -0.0130989 -0.00161606 -0.000427652 6.75055 15.4469 5.13697 
421 27 2 12.01 0.11 10.3947 1.84449 5.34811 10.3947 51.0268 54.5305 0 1 1 -0.00363498 0.00462589 -0.00228668 -28.3435 -20.1635 8.23402 
7708 482 3 1.008 0.03 10.6343 1.44185 1.2283 158.181 50.6242 99.593 3 1 2 -0.0110832 0.0225132 0.0117716 -3.38571 23.2906 -5.21529 
429 27 3 1.008 0.03 11.0384 2.55989 4.93972 11.0384 51.7422 54.1221 0 1 1 0.00983295 0.00524474 -0.0134374 17.7932 21.3245 -3.99922 
3014 189 2 12.01 0.11 14.6693 2.26158 1.79549 14.6693 -46.9208 50.9778 0 -1 1 0.00838706 -0.00287919 -0.00358173 -59.0904 -4.366 -67.1567 
7701 482 2 12.01 0.11 10.9182 1.14406 2.21923 158.465 50.3264 100.584 3 1 2 -0.00030465 -0.0047542 0.00411766 -48.2004 -11.9779 -11.0921 
424 27 3 1.008 0.03 9.17683 4.10062 5.2174 9.17683 53.283 54.3997 0 1 1 0.00211236 -0.0125547 -0.0111647 13.109 9.71634 -15.3559 
513 33 1 16 -0.4 14.6158 4.7969 5.27471 112.98 4.7969 -43.9076 2 0 -1 -0.00427644 0.00588953 0.00238795 11.373 9.67069 -14.2789 
515 33 2 12.01 0.14 13.5739 4.32481 4.48133 111.939 4.32481 -44.701 2 0 -1 0.00785548 -0.00613409 -0.00844792 -37.2594 0.863832 -1.95848 
520 33 3 1.008 0.03 13.5341 3.22582 4.50253 111.899 3.22582 -44.6798 2 0 -1 0.0049105 0.00598027 -0.0153402 -0.596729 5.90223 3.0588 
9288 581 3 1.008 0.03 9.93851 7.69379 4.12668 157.486 -41.4886 -45.0557 3 -1 -1 0.0203987 -0.0449096 -0.0278852 -11.4873 15.7946 -0.697843 
519 33 3 1.008 0.03 13.6161 4.58536 3.40129 111.981 4.58536 -45.7811 2 0 -1 -0.000992572 -0.014481 -0.014259 2.18798 5.3699 14.7491 
514 33 1 16 -0.4 12.1824 4.36434 6.40952 110.547 4.36434 -42.7728 2 0 -1 0.00566209 -0.00114706 0.0010889 -10.9253 -13.288 15.1634 
516 33 2 12.01 0.14 12.3195 4.95031 5.15976 110.684 4.95031 -44.0226 2 0 -1 -0.00498278 0.00502607 -0.00897653 35.3608 10.6242 -13.4768 
522 33 3 1.008 0.03 11.5112 4.7281 4.56063 109.876 4.7281 -44.6217 2 0 -1 -0.0371367 -0.0130967 -0.0114341 -34.6326 -8.46458 -19.8118 
9282 581 1 16 -0.4 9.3106 8.27337 6.39349 156.858 -40.909 -42.7889 3 -1 -1 -0.00220236 0.00238323 -0.00412587 25.4519 5.79674 -30.3995 
521 33 3 1.008 0.03 12.3621 6.04152 5.18726 110.727 6.04152 -43.9951 2 0 -1 0.0202723 -0.00914294 0.0206122 4.34452 -0.895742 3.85248 
7709 482 3 1.008 0.03 9.90787 0.968323 2.66114 157.455 50.1507 101.026 3 1 2 0.0138734 0.0184986 -2.67714e-05 22.0132 -5.45819 -2.99709 
9291 581 3 1.008 0.03 11.8255 8.28181 2.91696 159.373 -40.9005 -46.2654 3 -1 -1 0.0119376 -0.00525895 0.00302396 -6.89772 -7.06097 -7.14257 
7648 478 3 1.008 0.03 14.7073 6.87433 1.2802 113.072 6.87433 148.827 2 0 3 -0.00939853 0.00081387 -0.00976325 10.0815 26.9847 -7.14468 
3023 189 3 1.008 0.03 13.9715 1.53465 2.25191 13.9715 -47.6477 51.4343 0 -1 1 -0.0162029 0.00516054 0.00261322 12.8476 3.37027 -2.10124 
7638 478 2 12.01 0.11 14.9982 7.95272 1.10261 113.363 7.95272 148.65 2 0 3 -0.00704279 0.00263878 -0.00104617 -0.999061 -12.2346 22.7647 
7647 478 3 1.008 0.03 16.0741 8.09514 0.946524 114.439 8.09514 148.494 2 0 3 -0.000144555 -0.0166411 -0.0206955 -3.05832 -9.15688 3.96273 
7636 478 2 12.01 0.14 15.0717 8.37601 3.45627 113.436 8.37601 151.003 2 0 3 0.000219697 0.00937564 -0.000858613 -4.77711 -14.5153 -9.88538 
7642 478 3 1.008 0.03 14.4327 7.5993 3.86718 112.797 7.5993 151.414 2 0 3 0.00237647 0.00123666 -0.0220685 -0.432556 -5.63776 -3.40027 
1564 98 3 1.008 0.03 15.2614 2.37265 6.81164 113.626 51.555 -42.3707 2 1 -1 0.0208987 0.0125324 -0.00237758 21.6906 -24.259 -3.39791 
517 33 2 12.01 0.11 15.7995 4.64226 4.5549 114.164 4.64226 -44.6275 2 0 -1 0.000322692 -0.00369571 -0.00350305 16.1888 8.09985 -6.3363 
524 33 3 1.008 0.03 16.0073 5.33878 3.72925 114.372 5.33878 -45.4531 2 0 -1 -0.00248157 -0.00703207 -0.00405478 -12.8952 -2.47608 2.88911 
525 33 3 1.008 0.03 16.6239 4.7829 5.21089 114.989 4.7829 -43.9715 2 0 -1 0.0179077 -0.0116471 -0.00890244 12.8996 0.46525 13.7791 
523 33 3 1.008 0.03 15.8518 3.63759 4.19337 114.217 3.63759 -44.989 2 0 -1 0.000663016 0.0117205 -0.015192 11.5321 -8.58976 2.52284 
7707 482 3 1.008 0.03 11.3485 1.95157 2.74179 158.896 51.1339 101.106 3 1 2 0.0357922 0.0169388 0.0158774 16.8385 16.4879 8.57434 
3020 189 3 1.008 0.03 10.7625 6.31722 0.61858 10.7625 -42.8651 49.8009 0 -1 1 -0.00374308 0.00152444 -0.00261253 -23.0917 5.83264 3.43442 
3018 189 3 1.008 0.03 14.9494 4.71885 0.817143 14.9494 -44.4635 49.9995 0 -1 1 0.00542211 0.011517 0.025557 16.8005 11.104 13.5717 
1049 66 3 1.008 0.03 15.9485 6.61276 7.08625 -33.2338 -140.934 154.633 -1 -3 3 0.00440919 -0.00677847 -0.00421259 0.265849 -4.08794 17.6085 
428 27 3 1.008 0.03 10.8219 0.88586 5.0897 10.8219 50.0682 54.272 0 1 1 -0.00790324 -0.00093023 -0.0213218 -3.06194 -6.8356 -5.10865 
1557 98 2 12.01 0.11 15.8296 1.3895 6.87097 114.194 50.5719 -42.3114 2 1 -1 -0.00741416 -0.00585159 0.00269479 -33.035 5.10009 -1.49082 
1563 98 3 1.008 0.03 16.3236 1.098 5.94279 114.688 50.2804 -43.2396 2 1 -1 0.0153394 -0.0146561 -0.0412562 -0.331153 9.75924 -2.87748 
7641 478 3 1.008 0.03 16.0385 7.95397 3.21425 114.403 7.95397 150.761 2 0 3 -0.0114232 0.0244471 0.0127928 8.48896 -5.6788 14.0965 
427 27 3 1.008 0.03 10.3552 1.83925 6.42147 10.3552 51.0216 55.6038 0 1 1 -0.0256802 -0.0225588 -0.0202252 5.79086 8.23423 11.6376 
3024 189 3 1.008 0.03 15.4058 1.71674 1.18628 15.4058 -47.4656 50.3686 0 -1 1 -0.0131723 0.00210887 0.0116628 -2.15082 1.59532 7.75796 
526 33 3 1.008 0.03 10.1713 4.99628 6.82793 108.536 4.99628 -42.3544 2 0 -1 -0.00292378 -0.00738482 0.0157812 5.29949 -12.4236 9.17205 
518 33 2 12.01 0.11 11.1804 4.9091 7.25489 109.545 4.9091 -41.9275 2 0 -1 -0.00691507 0.00187854 0.00604676 19.5478 30.6071 -28.764 
3010 189 1 16 -0.4 13.7866 3.04621 0.853187 13.7866 -46.1361 50.0355 0 -1 1 0.00401195 0.00241913 -0.00301353 41.0949 -33.8337 49.7489 
1050 66 3 1.008 0.03 14.5681 7.45815 7.18651 -34.6143 -140.089 154.734 -1 -3 3 0.0136523 0.00752317 0.00227304 -26.4765 19.5405 -7.25879 
10291 647 6 16 -0.53 24.8512 3.90036 7.08444 24.8512 53.0827 7.08444 0 1 0 0.00176638 -0.00335128 -0.00353586 -0.200196 6.71171 3.18265 
8260 517 2 12.01 0.14 18.8252 0.450899 1.37695 117.19 0.450899 1.37695 2 0 0 0.00289671 -0.00395666 0.00289842 17.2814 19.023 39.1075 
10326 649 8 19 -0.16 19.5584 5.51985 6.52947 19.5584 5.51985 6.52947 0 0 0 -0.00603378 -0.00649788 9.90223e-05 15.802 11.0936 -2.13826 
5650 354 1 16 -0.4 21.1495 2.52479 6.82783 -28.0329 51.7071 6.82783 -1 1 0 -0.00318656 0.00147535 -0.00131846 20.3236 -12.3139 -29.3069 
5658 354 3 1.008 0.03 20.8986 0.584491 6.40006 -28.2837 49.7668 6.40006 -1 1 0 -0.0140461 0.0291989 -0.0130926 -3.92589 -28.075 6.97397 
8266 517 3 1.008 0.03 19.8057 0.910839 1.69109 118.17 0.910839 1.69109 2 0 0 -0.0123603 0.00774538 0.024635 -18.2385 -8.90614 -18.5264 
5659 354 3 1.008 0.03 24.2874 2.49244 3.57651 -24.8949 51.6748 3.57651 -1 1 0 -0.0110339 -0.0264896 -0.00873868 -7.39672 2.62981 -0.864544 
5655 354 3 1.008 0.03 21.6619 1.98342 3.81448 -27.5205 51.1658 3.81448 -1 1 0 0.00451667 0.0314037 0.00132991 -3.69011 10.6895 -2.30897 
5651 354 2 12.01 0.14 21.9485 1.48546 4.72901 -27.2338 50.6678 4.72901 -1 1 0 0.000657979 -0.00826744 0.00404426 -25.3804 -45.8852 11.5468 
5652 354 2 12.01 0.14 20.861 1.47668 5.8463 -28.3214 50.659 5.8463 -1 1 0 -0.00950526 -0.00254105 0.0031392 -5.06795 46.4156 -16.8047 
5649 354 1 16 -0.4 23.0344 2.06557 5.37012 -26.148 51.2479 5.37012 -1 1 0 0.0027064 0.000414353 0.00200616 70.7439 8.5815 -39.9216 
10322 649 6 16 -0.53 22.3978 4.81757 5.93843 22.3978 4.81757 5.93843 0 0 0 -0.00662039 0.000458525 0.00524106 -0.287727 -6.63917 -7.77089 
10458 669 9 24.305 2 22.972 3.18171 7.01112 -26.2104 52.3641 7.01112 -1 1 0 -0.00640906 -0.00220727 -0.00730331 4.30238 -14.1482 -26.1611 
10312 649 4 14.01 -0.66 20.776 4.76841 4.06587 20.776 4.76841 4.06587 0 0 0 -0.011271 -0.00247605 -0.00285277 -6.33311 -11.7351 -6.94457 
10320 649 5 32.06 1.02 21.6996 5.62302 4.94254 21.6996 5.62302 4.94254 0 0 0 -0.00464383 0.000148639 -0.00250332 -0.468851 -3.25366 39.8762 
5653 354 2 12.01 0.11 24.252 1.89247 4.48366 -24.9303 51.0748 4.48366 -1 1 0 0.00142869 0.00612386 -0.00211635 -38.7973 16.9382 40.0766 
5657 354 3 1.008 0.03 19.8567 1.61594 5.37887 -29.3256 50.7983 5.37887 -1 1 0 0.00978062 -0.00753046 -0.000636771 13.5894 -5.11507 9.97899 
10323 649 7 12.01 0.35 20.4338 6.41211 6.03118 20.4338 6.41211 6.03118 0 0 0 -0.000538402 0.00957427 -0.0011832 -27.7294 53.4366 -19.1731 
10314 649 6 16 -0.53 19.0414 4.31388 2.26064 19.0414 4.31388 2.26064 0 0 0 -0.00393085 -0.00276158 -0.000278426 28.3336 17.0185 21.0825 
10313 649 5 32.06 1.02 20.0408 5.26371 2.78246 20.0408 5.26371 2.78246 0 0 0 -0.00199695 -0.00577762 0.00183059 -51.5575 -28.7447 -17.5463 
10316 649 7 12.01 0.35 21.3723 5.08153 1.57143 21.3723 5.08153 1.57143 0 0 0 0.00271951 -0.00513681 -0.00790596 29.2929 1.0118 -18.2799 
10318 649 8 19 -0.16 21.8805 3.85014 1.37301 21.8805 3.85014 1.37301 0 0 0 -0.0067835 0.00322055 0.00244915 -22.9817 9.91989 7.7106 
10319 649 8 19 -0.16 22.4249 5.80372 1.86337 22.4249 5.80372 1.86337 0 0 0 -0.00156735 0.00376937 -0.00324853 5.3492 8.6229 8.0353 
10321 649 6 16 -0.53 22.426 6.67736 4.30205 22.426 6.67736 4.30205 0 0 0 0.0105909 0.00114821 0.000981821 1.38717 12.2727 1.03858 
10315 649 6 16 -0.53 19.6389 6.65819 2.75178 19.6389 6.65819 2.75178 0 0 0 -0.000498482 -0.00222407 -0.00466387 13.2365 -14.8673 -2.84712 
10325 649 8 19 -0.16 19.6878 7.33467 5.325 19.6878 7.33467 5.325 0 0 0 -0.00712215 -0.00679179 -0.00110984 25.5674 -33.9864 29.2718 
8264 517 3 1.008 0.03 17.7272 0.859972 3.09098 116.092 0.859972 3.09098 2 0 0 0.00400429 0.0242067 -0.00157541 -21.4945 14.957 15.2544 
5661 354 3 1.008 0.03 24.5121 0.884926 4.22804 -24.6702 50.0673 4.22804 -1 1 0 0.03379 -0.0279905 0.00984404 -4.78196 -13.9678 -1.8847 
5656 354 3 1.008 0.03 22.1342 0.409707 4.43482 -27.0482 49.5921 4.43482 -1 1 0 0.00546068 -0.0198111 -0.0264585 -1.92681 26.9364 8.86671 
8265 517 3 1.008 0.03 18.2307 1.28291 0.922119 116.595 1.28291 0.922119 2 0 0 0.00578505 -0.0175553 -0.0441983 6.55801 -19.1783 3.59102 
10294 647 8 19 -0.16 24.9412 5.02395 4.53256 24.9412 54.2063 4.53256 0 1 0 0.00145256 -0.00240659 0.000535378 -2.71652 7.93576 8.34728 
10324 649 8 19 -0.16 20.9816 7.0976 7.06506 20.9816 7.0976 7.06506 0 0 0 -0.00413715 -0.00299704 0.00567841 -11.0329 -19.7154 -18.3849 
5663 354 3 1.008 0.03 19.262 2.83821 7.2963 -29.9204 52.0206 7.2963 -1 1 0 0.000733281 0.00854924 -0.0181545 -40.4156 -1.17743 -16.0685 
9290 581 3 1.008 0.03 7.68392 8.9322 5.16906 155.231 -40.2502 -44.0133 3 -1 -1 0.0124019 -0.00300071 0.0113867 24.7824 -5.53189 10.8788 
6962 436 1 16 -0.4 0.944099 11.9904 5.31815 50.1264 61.1727 103.683 1 1 2 0.00107679 0.00204505 -0.000191498 12.2576 16.7446 14.1868 
6974 436 3 1.008 0.03 1.04118 13.7962 4.25418 50.2235 62.9785 102.619 1 1 2 0.00182175 0.00573245 -0.0277886 -10.3594 17.2596 -45.2795 
6975 436 3 1.008 0.03 1.11841 13.9278 5.92338 50.3008 63.1101 104.288 1 1 2 -0.00748027 -0.015061 -0.00601423 -4.29481 11.5562 0.878742 
6966 436 2 12.01 0.11 1.43418 13.3398 5.07618 50.6165 62.5222 103.441 1 1 2 -0.0053429 0.00763438 -0.00486574 17.2198 -53.8264 65.0586 
1319 83 3 1.008 0.03 5.24897 10.3757 5.26158 54.4313 10.3757 -43.9208 1 0 -1 0.00383884 -0.0122833 0.00930657 -13.8857 -13.1677 4.79841 
1320 83 3 1.008 0.03 6.81023 10.8641 4.57064 55.9926 10.8641 -44.6117 1 0 -1 0.00102908 0.00356202 0.0204776 -41.2827 13.5336 13.6341 
1314 83 1 16 -0.4 4.97719 12.1511 7.05563 54.1595 12.1511 -42.1267 1 0 -1 -0.00458955 -0.00223568 -0.00502712 10.7237 -7.15855 -18.6021 
8890 556 3 1.008 0.03 4.31205 16.7573 5.8633 102.677 16.7573 -43.319 2 0 -1 -0.00892688 -0.011379 -0.0343774 -9.52666 7.91286 6.47032 
1315 83 2 12.01 0.14 5.78693 11.2385 4.9477 54.9693 11.2385 -44.2347 1 0 -1 0.00399099 0.00422645 0.00143861 59.123 3.56974 -26.6357 
8894 556 3 1.008 0.03 4.65457 15.0294 3.75963 103.019 15.0294 -45.4227 2 0 -1 -0.00322108 -0.0372927 0.0128463 -8.58836 27.1771 -11.14 
1325 83 3 1.008 0.03 4.31593 11.6438 2.04389 53.4983 11.6438 -47.1385 1 0 -1 0.0108829 -0.0135155 0.00714544 -8.06983 6.07532 -2.29565 
1313 83 1 16 -0.4 5.24817 11.9544 3.83385 54.4305 11.9544 -45.3485 1 0 -1 -0.00387116 -0.00588613 0.00378453 -0.337066 0.857074 14.9816 
1324 83 3 1.008 0.03 3.56674 10.8304 3.44796 52.7491 10.8304 -45.7344 1 0 -1 -0.010836 0.00674899 0.00549265 -19.7027 4.03693 7.40168 
1317 83 2 12.01 0.11 4.47371 11.1482 2.99198 53.6561 11.1482 -46.1904 1 0 -1 -0.00182305 -0.00272029 -0.00376285 22.2857 -38.8827 -20.615 
1323 83 3 1.008 0.03 4.94733 10.1681 2.71176 54.1297 10.1681 -46.4706 1 0 -1 -0.0150959 0.00769353 0.00837572 -0.530507 23.0762 8.4875 
8895 556 3 1.008 0.03 3.4914 16.483 3.48112 101.856 16.483 -45.7012 2 0 -1 -0.00628348 -0.011923 0.00295004 0.53291 -15.2847 2.05359 
2613 164 2 12.01 0.11 1.01416 15.7957 1.0092 -48.1682 64.9781 -48.1731 -1 1 -1 -0.00495753 -0.00669203 0.00721645 12.7319 46.4518 -6.28784 
8886 556 2 12.01 0.11 4.50877 16.084 3.36277 102.873 16.084 -45.8196 2 0 -1 -0.00326064 0.00200021 -0.00577797 -12.8796 -22.0176 0.527158 
1322 83 3 1.008 0.03 6.1146 13.2281 5.69385 55.2969 13.2281 -43.4885 1 0 -1 0.0106162 0.000424719 0.0133829 7.88465 -8.21579 2.98035 
2620 164 3 1.008 0.03 1.43575 15.2626 1.82529 -47.7466 64.4449 -47.3571 -1 1 -1 -0.0117564 0.00656414 0.00922564 9.2155 9.13671 28.2573 
1316 83 2 12.01 0.14 6.05581 12.2046 6.10474 55.2382 12.2046 -43.0776 1 0 -1 0.00790907 0.00245474 0.0024678 -87.399 26.2311 -31.7798 
8896 556 3 1.008 0.03 4.68146 16.0978 2.27395 103.046 16.0978 -46.9084 2 0 -1 0.0170182 0.0175629 -0.000766516 4.76761 -0.056882 9.19122 
8332 521 3 1.008 0.03 7.29192 11.7866 1.72965 105.657 60.9689 50.912 2 1 1 -0.00809638 0.0391967 0.00312128 -3.65026 -2.78763 -13.4436 
1321 83 3 1.008 0.03 6.86656 11.9767 6.59297 56.0489 11.9767 -42.5894 1 0 -1 0.00925375 -0.00542377 0.00491348 70.1971 -16.8408 35.3097 
10131 636 8 19 -0.16 1.34916 8.9385 0.561101 1.34916 8.9385 49.7434 0 0 1 -0.000951609 0.00401371 0.00357406 25.7299 9.76777 -27.4813 
6976 436 3 1.008 0.03 2.53059 13.3237 5.17361 51.7129 62.506 103.538 1 1 2 -0.00678831 -0.0163407 0.0171059 -5.02621 5.15111 -14.2028 
8329 521 3 1.008 0.03 8.59536 14.3201 5.16546 106.96 63.5025 54.3478 2 1 1 -0.00250741 -0.00527668 0.0247669 -21.4168 9.18401 11.1258 
8321 521 1 16 -0.4 8.22775 12.8267 3.13156 106.592 62.009 52.3139 2 1 1 -0.00132027 -0.00148419 -0.00091721 15.9927 17.2425 1.86855 
8325 521 2 12.01 0.11 8.29658 11.9044 2.10157 106.661 61.0868 51.2839 2 1 1 0.00382249 -0.00285395 -0.0016454 -2.53698 -36.3741 36.9992 
8334 521 3 1.008 0.03 7.97157 16.591 3.41231 106.336 65.7734 52.5947 2 1 1 -0.00488083 -0.00952006 -0.00245919 -1.3417 -4.56467 13.1158 
6970 436 3 1.008 0.03 2.26911 11.4002 6.96326 51.4515 60.5826 105.328 1 1 2 0.00336856 0.0157665 0.0193311 20.3566 -0.105809 -10.274 
8889 556 3 1.008 0.03 5.73819 15.8919 5.76391 104.103 15.8919 -43.4184 2 0 -1 0.00756022 -0.0191965 0.020643 9.23171 -12.531 -5.45064 
8336 521 3 1.008 0.03 8.37775 15.293 2.36089 106.742 64.4753 51.5432 2 1 1 -0.0152338 -0.00697802 0.00321497 1.52532 -11.0946 -10.6425 
6964 436 2 12.01 0.14 1.25532 11.5772 6.68367 50.4377 60.7595 105.048 1 1 2 0.00267705 -0.0100972 -0.00408818 -31.3651 -11.2869 -8.02625 
2616 164 3 1.008 0.03 1.55912 13.1409 0.889791 -47.6232 62.3233 -48.2926 -1 1 -1 -0.00553021 -0.00568647 -0.00882409 3.29164 -21.8922 44.2205 
10128 636 7 12.01 0.35 0.429986 9.05811 1.44812 0.429986 9.05811 50.6305 0 0 1 0.000324134 -0.0120871 -0.00158022 9.30537 -76.3391 0.630743 
1328 83 3 1.008 0.03 4.79142 14.2221 7.27109 53.9738 14.2221 -41.9113 1 0 -1 0.00699471 -0.0161216 -0.00964734 -2.52011 -13.3915 2.32143 
6971 436 3 1.008 0.03 2.47411 9.25507 5.98868 51.6565 58.4374 104.353 1 1 2 -0.0249186 0.0302757 0.0300243 -16.4786 -6.64489 -12.1835 
6965 436 2 12.01 0.11 1.56471 8.63951 6.1669 50.7471 57.8219 104.532 1 1 2 0.00392475 0.00041469 -0.00481977 19.4732 28.125 2.69919 
6969 436 3 1.008 0.03 0.921448 12.3359 7.34515 50.1038 61.5182 105.71 1 1 2 0.0169355 -0.00875153 -0.0029701 4.32378 18.1237 10.6641 
2621 164 3 1.008 0.03 1.7731 16.4365 0.501243 -47.4093 65.6188 -48.6811 -1 1 -1 0.0141581 -0.0265476 -0.0181035 -4.17664 -18.3577 7.55341 
9287 581 3 1.008 0.03 8.69735 8.72232 3.31813 156.244 -40.46 -45.8642 3 -1 -1 -0.00016478 -0.00843878 -0.0125709 15.3189 1.29212 -7.77012 
9289 581 3 1.008 0.03 8.80455 10.1525 5.55073 156.352 -39.0298 -43.6316 3 -1 -1 4.60769e-05 -0.00634008 0.00172009 9.84338 18.9124 7.64043 
9284 581 2 12.01 0.14 8.78213 9.11 5.35289 156.329 -40.0723 -43.8295 3 -1 -1 0.00453708 -0.00065101 0.000684784 -27.5171 -31.9694 -4.32735 
9283 581 2 12.01 0.14 9.50772 8.72528 4.0616 157.055 -40.4571 -45.1208 3 -1 -1 0.00719013 0.0004208 -0.0036441 -20.0907 -30.216 7.97209 
9281 581 1 16 -0.4 10.5219 9.63564 3.83834 158.069 -39.5467 -45.344 3 -1 -1 -0.00480442 6.43724e-05 0.0013646 24.3057 14.6162 -13.192 
9285 581 2 12.01 0.11 11.404 9.27259 2.76711 158.951 -39.9098 -46.4152 3 -1 -1 0.00437387 -0.0100037 0.000442872 -2.50359 4.97697 26.4217 
9292 581 3 1.008 0.03 10.9286 9.4354 1.80994 158.476 -39.7469 -47.3724 3 -1 -1 -0.00244308 -0.00466461 -0.0169911 -0.057344 -5.47208 -8.12601 
7634 478 1 16 -0.4 14.5717 8.77909 2.19645 112.936 8.77909 149.744 2 0 3 0.00401002 0.000291832 0.00337257 -8.40818 7.45802 -5.53478 
6664 417 3 1.008 0.03 10.938 15.7774 7.03021 109.303 114.142 154.577 2 2 3 0.00223124 0.00750316 -0.00043629 4.98795 6.02985 -5.57647 
7639 478 3 1.008 0.03 15.3787 9.00245 5.49304 113.743 9.00245 153.04 2 0 3 0.0205776 0.00891034 -0.0118228 0.669645 -6.19918 -4.57637 
8331 521 3 1.008 0.03 8.60837 10.9618 2.61838 106.973 60.1441 51.8007 2 1 1 -0.00543714 -0.00166663 0.00233252 -8.84417 12.5689 -17.8287 
7162 448 3 1.008 0.03 15.4635 15.4939 2.34047 15.4635 -82.8708 51.5228 0 -2 1 -0.0151841 0.0180882 0.0159222 16.0131 -0.95412 -3.68885 
9293 581 3 1.008 0.03 12.2894 9.88557 2.84501 159.836 -39.2968 -46.3373 3 -1 -1 -0.00293059 0.0167353 -0.038287 1.29058 10.7832 -4.50455 
8327 521 3 1.008 0.03 9.89241 12.2103 4.13281 108.257 61.3926 53.3152 2 1 1 -0.0149795 -0.00435645 -0.0177018 8.50709 -1.13154 -1.17452 
7313 458 1 16 -0.4 11.4526 11.9386 7.08837 60.635 -37.2438 -42.094 1 -1 -1 -0.00402015 -0.00613259 0.00418206 34.9565 15.2552 3.17184 
8333 521 3 1.008 0.03 9.04861 12.1414 1.38623 107.413 61.3238 50.5686 2 1 1 0.0162346 0.00858873 0.0174179 3.6701 4.77019 -21.7016 
7644 478 3 1.008 0.03 15.8008 10.9205 2.34164 114.166 10.9205 149.889 2 0 3 -0.0145679 -0.009479 0.0115544 -7.2607 0.926988 15.8938 
8326 521 2 12.01 0.11 8.808 16.0469 2.98739 107.173 65.2292 52.1697 2 1 1 -0.00212555 0.00341896 -0.000296377 -13.8892 13.4267 6.80441 
8322 521 1 16 -0.4 9.78861 15.613 3.88889 108.153 64.7954 53.0712 2 1 1 -0.000611454 -0.00616435 0.00324565 -6.00313 -22.2313 18.0404 
8330 521 3 1.008 0.03 10.329 14.2318 5.25681 108.694 63.4142 54.4392 2 1 1 -0.000889817 0.00338303 -0.022777 -17.7237 3.59441 -7.56722 
8323 521 2 12.01 0.14 9.55316 13.0857 3.58517 107.918 62.268 52.7675 2 1 1 -0.00235941 0.000862771 0.00241868 -39.7113 50.7597 55.3526 
8324 521 2 12.01 0.14 9.46272 14.3691 4.5645 107.827 63.5515 53.7469 2 1 1 -0.0110296 0.00654036 -0.00391961 56.2029 -35.8524 -31.8728 
8328 521 3 1.008 0.03 10.1976 13.3937 2.81403 108.562 62.5761 51.9964 2 1 1 0.027175 -0.00816567 0.0111703 21.376 -4.03365 -21.467 
7637 478 2 12.01 0.11 16.2403 11.1928 3.3199 114.605 11.1928 150.867 2 0 3 0.000748673 -0.000874153 0.0011037 39.6699 10.2633 -8.20475 
7640 478 3 1.008 0.03 14.3755 10.0788 4.74792 112.74 10.0788 152.295 2 0 3 0.020635 -0.00815796 0.0284185 -21.5666 11.9692 -9.53605 
7325 458 3 1.008 0.03 12.5949 11.8277 5.38216 61.7772 -37.3547 -43.8002 1 -1 -1 -0.0151831 0.0215321 0.0104907 0.938831 13.0434 14.5023 
7317 458 2 12.01 0.11 12.6648 12.3335 6.37688 61.8472 -36.8489 -42.8055 1 -1 -1 -0.00516262 -0.00380725 -0.000212081 -64.2969 -21.8224 -32.893 
7323 458 3 1.008 0.03 12.6894 13.392 6.22056 61.8718 -35.7903 -42.9618 1 -1 -1 0.010302 0.00519373 0.00895128 1.11934 13.2049 -1.86212 
7635 478 2 12.01 0.14 15.2028 9.45944 4.51767 113.568 9.45944 152.065 2 0 3 -0.00523286 7.77425e-06 -0.00421976 34.7799 -0.598669 12.9397 
7168 448 3 1.008 0.03 13.5315 16.1452 3.79396 13.5315 -82.2195 52.9763 0 -2 1 0.0249739 0.014727 0.00481429 10.1344 -12.2398 5.72399 
7324 458 3 1.008 0.03 13.5693 12.0036 6.73193 62.7517 -37.1787 -42.4504 1 -1 -1 0.00109382 0.0236579 -0.00677892 35.7747 -10.9951 24.6687 
7645 478 3 1.008 0.03 15.7153 11.9367 3.91392 114.08 11.9367 151.461 2 0 3 0.00667202 -0.0166064 -0.0233877 -7.3443 10.7611 -15.2379 
7161 448 3 1.008 0.03 14.085 15.5235 1.38145 14.085 -82.8412 50.5638 0 -2 1 -0.0137084 0.00643746 -0.000495265 -2.23466 -0.883634 -11.2376 
7156 448 2 12.01 0.14 14.9442 16.1351 1.63934 14.9442 -82.2296 50.8217 0 -2 1 0.00791674 -0.00432381 0.00516869 -19.3651 -50.4813 2.47657 
7167 448 3 1.008 0.03 12.5006 16.7508 2.57316 12.5006 -81.6139 51.7555 0 -2 1 -0.00174744 0.0199394 -0.0120558 14.5467 9.24779 2.4495 
7633 478 1 16 -0.4 16.4135 10.1693 4.28185 114.778 10.1693 151.829 2 0 3 0.00486065 0.00169488 -0.0001773 -2.48484 -4.81854 -8.10137 
7945 497 3 1.008 0.03 11.0353 15.4434 0.501715 11.0353 -33.7389 0.501715 0 -1 0 0.00390536 0.0186179 -0.00912487 12.8339 -0.338971 47.2055 
762 48 3 1.008 0.03 16.431 16.3753 6.41965 114.796 16.3753 -42.7627 2 0 -1 0.00380449 0.0137162 0.00899789 17.4237 13.3926 4.34139 
6663 417 3 1.008 0.03 9.26803 16.3322 7.17161 107.633 114.697 154.719 2 2 3 0.0132159 0.00319648 0.00253333 28.5983 9.13145 19.1752 
5006 313 3 1.008 0.03 13.5639 16.0613 6.86493 -84.8008 16.0613 6.86493 -2 0 0 0.00127837 0.000284699 0.00117224 13.4796 8.00021 19.5551 
4684 293 3 1.008 0.03 15.9359 13.4542 7.43115 -33.2464 62.6366 56.6135 -1 1 1 -0.00604401 0.0068635 -0.0276741 12.0594 -2.39195 2.56514 
7155 448 2 12.01 0.14 15.6742 16.5909 0.430801 15.6742 -81.7738 49.6131 0 -2 1 0.00543872 6.13875e-06 -0.00634737 0.676327 -11.6272 -30.9202 
9830 616 8 19 -0.16 20.1451 15.8617 0.545668 69.3275 15.8617 0.545668 1 0 0 0.00365622 -0.00472389 0.00190826 11.0914 7.42998 12.8251 
4685 293 3 1.008 0.03 17.2759 12.5117 6.63495 -31.9064 61.694 55.8173 -1 1 1 -0.0139395 -0.00584623 0.0230447 -19.9822 10.0031 32.1367 
10155 638 5 32.06 1.02 24.9798 15.2682 3.94762 24.9798 15.2682 53.13 0 0 1 0.00198136 0.000904525 0.00290122 26.1011 -14.2326 -44.7744 
9831 616 8 19 -0.16 18.8411 16.7139 1.98298 68.0235 16.7139 1.98298 1 0 0 -0.00195998 0.0009677 0.00247076 -9.96829 -14.5871 -3.13313 
7643 478 3 1.008 0.03 17.2487 11.6089 3.01051 115.613 11.6089 150.558 2 0 3 -0.010738 -0.014325 -0.0289798 -26.6012 -9.44348 16.313 
10153 638 8 19 -0.16 21.1102 14.0251 6.14674 21.1102 14.0251 55.3291 0 0 1 0.00194759 -0.00324482 0.00084148 25.7334 14.9104 -4.08756 
10156 638 6 16 -0.53 23.8905 15.7075 3.10648 23.8905 15.7075 52.2888 0 0 1 -0.00671853 -0.0056644 -0.00145201 -6.02907 1.76708 12.5337 
7808 488 3 1.008 0.03 23.9534 8.81325 2.8864 73.1358 8.81325 2.8864 1 0 0 -0.000523082 0.0271287 -0.0105999 -13.4227 6.71862 -3.16733 
10150 638 6 16 -0.53 23.534 12.1878 5.87404 23.534 12.1878 55.0564 0 0 1 0.00238996 0.00338897 0.00585093 -4.38026 -4.90424 17.7345 
9828 616 7 12.01 0.35 19.7316 15.7427 1.80773 68.9139 15.7427 1.80773 1 0 0 0.000981926 -0.0103094 0.00197688 -31.3801 -4.99063 -27.4205 
7793 488 1 16 -0.4 23.1613 12.8514 0.958586 72.3437 12.8514 0.958586 1 0 0 -0.00247794 0.00750305 -0.00422967 -31.8727 -13.6612 21.2515 
4946 310 1 16 -0.4 21.3718 10.6428 0.884839 70.5541 10.6428 0.884839 1 0 0 -0.00332353 0.00694241 0.00180538 -9.4757 -13.0809 19.3513 