ITEM: TIMESTEP
4300000
ITEM: NUMBER OF ATOMS
10479
ITEM: BOX BOUNDS pp pp pp
4.0882558190751794e-01 4.9591174418091420e+01
4.0882558190751794e-01 4.9591174418091420e+01
4.0882558190751794e-01 4.9591174418091420e+01
ITEM: ATOMS id mol type mass q x y z xu yu zu ix iy iz vx vy vz fx fy fz 
8261 517 2 12.01 0.11 8.52979 1.67372 5.92359 106.894 1.67372 5.92359 2 0 0 -0.00149265 0.00172578 -0.00118863 -6.74522 26.6591 -6.76008 
2979 187 2 12.01 0.14 5.71719 3.07848 2.9849 54.8995 3.07848 101.35 1 0 2 0.0014663 0.0026838 -0.00714868 -13.4747 -27.3083 51.0268 
2977 187 1 16 -0.4 4.50398 2.28196 2.92952 53.6863 2.28196 101.294 1 0 2 -0.00229208 -0.00139365 -0.00845504 20.6736 -9.98796 31.0549 
2980 187 2 12.01 0.14 5.80678 3.75383 1.67433 54.9891 3.75383 100.039 1 0 2 -0.00431605 -0.00484352 0.00376595 14.6966 77.8338 10.7874 
2985 187 3 1.008 0.03 6.68957 3.47152 1.18636 55.8719 3.47152 99.5511 1 0 2 0.0105845 -0.0232017 -0.00514281 25.9062 -5.81339 -10.2202 
8268 517 3 1.008 0.03 8.40557 0.67817 6.24344 106.77 0.67817 6.24344 2 0 0 0.0210048 -0.00247278 0.016956 -2.48995 -22.878 5.1009 
5007 313 3 1.008 0.03 1.78639 5.14151 2.9288 -96.5783 5.14151 2.9288 -2 0 0 0.00959142 -0.00847964 0.00538994 16.5071 -5.68144 2.40994 
2978 187 1 16 -0.4 5.78135 5.1969 1.96987 54.9637 5.1969 100.335 1 0 2 -0.00674012 0.00261212 0.00156539 -2.90615 -50.1939 1.19064 
2983 187 3 1.008 0.03 5.70023 3.74689 3.8696 54.8826 3.74689 102.234 1 0 2 -0.0168736 0.00636667 0.0050447 -12.5958 4.86808 -18.6514 
5000 313 3 1.008 0.03 3.01631 6.87068 1.86576 -95.3484 6.87068 1.86576 -2 0 0 0.0226229 -0.0112956 0.00782718 13.3838 -12.4838 15.9726 
4995 313 2 12.01 0.14 2.44633 7.31672 1.09752 -95.9184 7.31672 1.09752 -2 0 0 0.00614948 0.00186717 0.00398956 -41.563 -10.2854 -0.176698 
2984 187 3 1.008 0.03 6.64405 2.57621 3.33768 55.8264 2.57621 101.702 1 0 2 -0.0197575 -0.0196224 -0.00842735 -12.7355 -7.68527 -22.3371 
8267 517 3 1.008 0.03 7.53095 2.12479 6.05161 105.896 2.12479 6.05161 2 0 0 0.0158638 -0.00465629 0.0107561 10.1376 0.109916 -9.652 
8019 502 2 12.01 0.14 1.52417 1.01044 1.5496 50.7065 50.1928 99.9143 1 1 2 -0.00387644 0.00351176 -0.0086967 -20.5309 -10.8056 -33.2154 
7267 455 2 12.01 0.14 2.82916 6.48586 6.7568 52.0115 6.48586 55.9392 1 0 1 -0.00510889 -0.0068112 -0.00527621 -3.67934 42.6214 -16.8777 
7271 455 3 1.008 0.03 3.35451 6.07367 5.88998 52.5369 6.07367 55.0723 1 0 1 0.0202132 0.00280264 3.30527e-05 -7.93802 0.129871 -2.73388 
2981 187 2 12.01 0.11 4.2139 1.69082 4.22681 53.3962 1.69082 102.592 1 0 2 -0.00528277 -0.00460089 -0.00234621 -19.7289 3.07084 -27.4016 
2434 153 1 16 -0.4 7.40368 6.62357 6.90496 105.768 55.8059 6.90496 2 1 0 0.00705744 0.0014024 -0.00319771 8.5317 -24.0575 -17.4808 
8024 502 3 1.008 0.03 1.78423 2.07261 1.60943 50.9666 51.255 99.9741 1 1 2 0.00182841 0.0192568 -0.0077396 -9.04522 -1.00319 2.38396 
7273 455 3 1.008 0.03 0.725416 6.07738 6.6719 49.9078 6.07738 55.8543 1 0 1 -0.000308468 -0.0222856 -0.0130185 0.349212 -9.3746 1.99663 
2989 187 3 1.008 0.03 3.51056 0.801246 4.12279 52.6929 0.801246 102.487 1 0 2 -0.02143 -0.0194433 -0.0021523 17.0536 28.8021 4.10986 
2441 153 3 1.008 0.03 7.08379 5.82136 4.92226 105.448 55.0037 4.92226 2 1 0 0.00126236 -0.00125114 0.0273512 1.30161 -6.62892 11.6392 
2436 153 2 12.01 0.14 7.76933 6.4257 5.52821 106.134 55.608 5.52821 2 1 0 -0.00570655 -0.00257982 -0.00511044 -18.5749 26.3711 14.8879 
2439 153 3 1.008 0.03 8.36349 8.48155 5.47065 106.728 57.6639 5.47065 2 1 0 -0.00930829 -0.0419121 -0.0177437 12.8219 13.3164 2.95399 
2435 153 2 12.01 0.14 7.62051 7.86127 5.02568 105.985 57.0436 5.02568 2 1 0 -0.00313308 0.00147539 -0.00194884 -7.47214 -14.8613 -22.8933 
2988 187 3 1.008 0.03 3.75784 2.51879 4.81514 52.9402 2.51879 103.18 1 0 2 0.0110147 0.00891829 -0.0213554 3.94798 -18.0128 -1.41596 
8017 502 1 16 -0.4 1.24515 0.514975 2.82531 50.4275 49.6973 101.19 1 1 2 0.000113492 -6.5077e-05 0.00273424 12.6616 -10.5706 36.9138 
2987 187 3 1.008 0.03 5.12287 1.33792 4.71129 54.3052 1.33792 103.076 1 0 2 -0.0197731 0.0175261 0.010301 0.832775 -0.564685 1.04241 
2986 187 3 1.008 0.03 5.05365 3.55132 0.977166 54.236 3.55132 99.3419 1 0 2 0.0143522 0.00720434 0.0145294 -26.1904 -10.8182 -13.153 
7268 455 2 12.01 0.14 1.61762 5.61476 7.1163 50.8 5.61476 56.2986 1 0 1 -8.87964e-05 0.000503018 0.00424188 20.3828 17.0642 25.779 
4996 313 2 12.01 0.14 1.03101 6.58997 0.977118 -97.3337 6.58997 0.977118 -2 0 0 -0.00583274 0.00325384 -0.00208331 26.5446 22.1431 -26.8554 
8023 502 3 1.008 0.03 0.615534 0.819338 0.951131 49.7979 50.0017 99.3158 1 1 2 0.0391008 0.0234314 -0.0125034 5.1444 17.0382 3.05359 
4998 313 2 12.01 0.11 0.724548 5.1733 2.8369 -97.6401 5.1733 2.8369 -2 0 0 0.00388906 0.00996659 0.00296384 -20.9303 -23.1485 1.98711 
7269 455 2 12.01 0.11 3.24208 8.55242 5.5629 52.4244 8.55242 54.7453 1 0 1 0.00357739 -0.00299451 -0.00172918 35.0601 -8.02614 31.8872 
7275 455 3 1.008 0.03 3.28579 8.03507 4.59528 52.4681 8.03507 53.7776 1 0 1 -0.0180312 -0.0129651 0.0327256 -4.72447 8.54847 0.562123 
7265 455 1 16 -0.4 2.36951 7.85883 6.49176 51.5519 7.85883 55.6741 1 0 1 -0.00580771 -0.00200622 -0.000838296 17.7794 -18.0931 -12.835 
204 13 3 1.008 0.03 5.47388 2.73803 6.86005 103.839 -46.4443 6.86005 2 -1 0 0.00656163 0.0144776 -0.0287371 10.9908 -6.74685 -21.6556 
2433 153 1 16 -0.4 7.65851 7.79404 3.62095 106.023 56.9764 3.62095 2 1 0 0.00064332 -0.000279212 0.000997826 5.21508 16.899 -11.741 
2440 153 3 1.008 0.03 6.63597 8.283 5.2032 105.001 57.4653 5.2032 2 1 0 -0.0165112 0.0369423 -0.0294986 -2.06214 -0.417554 12.1941 
7277 455 3 1.008 0.03 4.29878 8.50628 5.97803 53.4811 8.50628 55.1604 1 0 1 -0.0114836 0.00375328 0.0255902 -28.9344 -0.39323 -11.4966 
201 13 3 1.008 0.03 2.75558 0.814338 6.84432 101.12 -48.368 6.84432 2 -1 0 -0.00851458 0.0125087 -0.0109051 -19.8994 10.6641 -2.12293 
7931 496 3 1.008 0.03 0.43828 8.18794 4.00147 0.43828 8.18794 53.1838 0 0 1 0.0215197 -0.0152038 -0.0282452 9.79201 -18.4667 -12.8554 
202 13 3 1.008 0.03 4.44191 0.838992 6.83038 102.807 -48.3434 6.83038 2 -1 0 0.00824128 -0.00934722 0.0116168 -11.3928 0.16817 29.2816 
2990 187 3 1.008 0.03 6.3741 6.93791 1.47612 55.5565 6.93791 99.8408 1 0 2 0.0143537 0.0263133 0.0162299 6.8687 17.2279 4.25054 
6107 382 3 1.008 0.03 0.434736 3.02736 5.31349 -97.93 -46.155 -191.416 -2 -1 -4 0.00129459 -0.00139915 0.00694262 -46.6884 -10.7118 1.20184 
205 13 3 1.008 0.03 4.08304 3.74086 7.08245 102.448 -45.4415 7.08245 2 -1 0 0.015928 -0.00331991 0.00153963 -17.4126 17.5093 -14.6096 
2991 187 3 1.008 0.03 7.3949 5.75568 0.734975 56.5772 5.75568 99.0997 1 0 2 -0.0303186 0.0237384 0.00974567 15.1107 -8.05793 0.147747 
7274 455 3 1.008 0.03 1.83373 4.64959 6.67626 51.0161 4.64959 55.8586 1 0 1 0.00709131 -0.00956738 -0.00290444 -8.22352 -8.20668 -0.309322 
2982 187 2 12.01 0.11 6.38839 5.98785 1.004 55.5707 5.98785 99.3687 1 0 2 0.00304666 -0.0028382 -0.00162661 3.78929 9.44749 18.5421 
5002 313 3 1.008 0.03 1.18604 5.61034 0.512553 -97.1787 5.61034 0.512553 -2 0 0 0.00721277 -0.00251212 0.0251811 -1.53287 7.19408 -3.57215 
2442 153 3 1.008 0.03 8.78702 6.05098 5.43453 107.152 55.2333 5.43453 2 1 0 0.0035422 0.0078902 0.00205281 1.92243 1.61312 -10.5613 
1147 72 3 1.008 0.03 9.98327 6.31913 1.60275 9.98327 -42.8632 99.9674 0 -1 2 0.0155252 -0.00650526 0.00616556 -6.19271 7.85076 -8.56716 
8264 517 3 1.008 0.03 10.4045 3.1389 4.59639 108.769 3.1389 4.59639 2 0 0 0.000965006 0.014388 -0.0214868 28.069 6.46267 25.0205 
1148 72 3 1.008 0.03 11.5868 5.76831 1.43849 11.5868 -43.414 99.8032 0 -1 2 -0.00288656 0.00519901 -0.00132024 -2.09101 6.62786 1.5259 
8263 517 3 1.008 0.03 8.97756 3.80344 4.00956 107.342 3.80344 4.00956 2 0 0 0.0112517 0.000125204 0.0128129 -13.3389 -8.9777 8.03687 
8259 517 2 12.01 0.14 9.56858 2.88637 4.04328 107.933 2.88637 4.04328 2 0 0 -0.000804863 0.000568313 0.000863556 -20.3558 -23.0259 -13.9889 
1141 72 2 12.01 0.11 10.95 6.63447 1.20907 10.95 -42.5479 99.5738 0 -1 2 -0.00169024 -0.00118408 -0.0143329 -5.84273 -42.5605 25.6555 
6864 429 3 1.008 0.03 15.9243 4.16251 4.41534 -33.258 4.16251 201.145 -1 0 4 -0.0216188 0.00786737 -0.0203211 -5.33307 -8.36589 -0.750899 
8257 517 1 16 -0.4 9.01523 1.64745 4.5691 107.38 1.64745 4.5691 2 0 0 0.00184006 0.000162369 -0.00721878 -1.94883 20.9221 2.78059 
8265 517 3 1.008 0.03 10.6289 3.53451 2.31267 108.994 3.53451 2.31267 2 0 0 0.0148269 0.00229741 -0.0050078 -4.41934 -10.4494 4.05151 
1149 72 3 1.008 0.03 11.3361 7.42183 1.76544 11.3361 -41.7605 100.13 0 -1 2 -0.0286726 0.0128062 -0.023212 10.1203 29.105 16.2137 
8266 517 3 1.008 0.03 10.7827 1.81754 2.53743 109.147 1.81754 2.53743 2 0 0 0.00415875 0.0294786 0.018517 -2.74567 -3.65584 1.89066 
8260 517 2 12.01 0.14 10.069 2.62986 2.62552 108.434 2.62986 2.62552 2 0 0 -0.0110595 0.00690222 -0.00366598 10.8993 27.1832 -15.0468 
8269 517 3 1.008 0.03 9.17714 2.14817 6.66437 107.542 2.14817 6.66437 2 0 0 0.0364447 0.00274372 0.0075371 4.89395 0.945174 -7.59703 
6859 429 3 1.008 0.03 11.4416 7.63567 5.55983 -37.7408 7.63567 202.289 -1 0 4 -0.00885739 0.000637558 -0.000775978 -38.9567 33.1961 -14.5129 
6857 429 3 1.008 0.03 13.4628 3.32309 5.52545 -35.7195 3.32309 202.255 -1 0 4 0.0291254 -0.000500041 -0.0180551 9.18777 -0.381737 5.53554 
6852 429 2 12.01 0.14 13.4159 4.16306 4.84222 -35.7664 4.16306 201.572 -1 0 4 -0.00672076 -0.00255511 0.00452925 -29.5285 -10.3762 -39.0546 
6858 429 3 1.008 0.03 12.3766 4.23342 4.54707 -36.8058 4.23342 201.276 -1 0 4 0.00505735 0.0306979 -0.0426596 -6.64481 -2.4252 8.65757 
6850 429 1 16 -0.4 13.9647 3.91731 3.56394 -35.2176 3.91731 200.293 -1 0 4 0.00487484 -0.00401814 0.00860695 30.5041 -7.73066 5.34788 
6849 429 1 16 -0.4 12.8828 6.59489 4.95042 -36.2995 6.59489 201.68 -1 0 4 0.00315378 0.000658286 -0.000495605 30.5456 -29.0286 -23.5548 
6856 429 3 1.008 0.03 13.8467 5.48548 6.41659 -35.3357 5.48548 203.146 -1 0 4 -0.0168528 0.0144618 -0.00680821 -5.02815 -4.86551 5.95074 
6851 429 2 12.01 0.14 13.7718 5.5236 5.33674 -35.4105 5.5236 202.066 -1 0 4 0.00976153 0.00719318 -0.00485766 28.55 46.3857 22.8863 
6861 429 3 1.008 0.03 12.6621 7.52197 6.7538 -36.5203 7.52197 203.483 -1 0 4 0.00626271 0.0261712 0.028608 -1.91276 -3.30403 0.401683 
6860 429 3 1.008 0.03 11.5407 6.12847 6.4043 -37.6416 6.12847 203.134 -1 0 4 -0.000367485 -0.0157358 -0.00125138 3.48446 10.4631 -0.759667 
6853 429 2 12.01 0.11 12.0949 6.98976 5.98462 -37.0875 6.98976 202.714 -1 0 4 -0.00119167 -0.00545603 -9.88976e-05 4.37055 -27.9458 40.5592 
6855 429 3 1.008 0.03 14.8089 5.85201 5.12009 -34.3735 5.85201 201.849 -1 0 4 0.00682275 -0.00707135 -0.00673169 -14.2894 -7.23579 -6.20248 
6854 429 2 12.01 0.11 15.3693 3.59546 3.65324 -33.8131 3.59546 200.383 -1 0 4 0.00218707 -0.00336577 0.000393788 -13.4527 39.5334 11.8245 
6863 429 3 1.008 0.03 15.8768 3.85307 2.77378 -33.3056 3.85307 199.503 -1 0 4 -0.0077107 -0.0141377 -0.0110565 4.2131 12.4739 -26.7347 
8258 517 1 16 -0.4 8.97045 2.52808 1.73765 107.335 2.52808 1.73765 2 0 0 0.00138842 0.00384017 0.00289738 -6.30888 -2.81491 11.9924 
6862 429 3 1.008 0.03 15.5928 2.59184 3.71401 -33.5895 2.59184 200.443 -1 0 4 -0.00864 -0.0102147 -0.0155714 -0.447516 -41.3875 13.0146 
7303 457 3 1.008 0.03 14.9181 1.36734 1.61366 14.9181 99.732 1.61366 0 2 0 -0.0115084 -0.00128362 -0.0192582 -3.59491 1.71228 -6.08089 
2488 156 3 1.008 0.03 13.7797 0.674884 6.41403 -35.4026 0.674884 104.779 -1 0 2 -0.00376899 -0.0336016 -0.0308614 -1.96476 44.6492 -15.3993 
430 27 3 1.008 0.03 16.6468 6.95356 3.16969 16.6468 56.1359 52.352 0 1 1 0.00122796 -0.00386904 0.0185371 -18.1749 2.65694 2.02062 
2795 175 3 1.008 0.03 11.412 2.49424 7.26162 60.5943 150.041 56.444 1 3 1 -0.0161085 -0.0126897 0.00556918 -7.96837 -3.61746 -3.41053 
2492 156 3 1.008 0.03 13.9922 0.430587 3.81029 -35.1901 0.430587 102.175 -1 0 2 -0.00452659 0.00429518 0.013404 -14.9811 5.00783 -2.61528 
7299 457 2 12.01 0.14 15.0462 1.13895 0.546803 15.0462 99.5036 0.546803 0 2 0 0.00612966 0.000931343 0.00375827 -40.5104 14.2047 10.4652 
8157 510 3 1.008 0.03 14.9306 8.31213 7.32642 14.9306 57.4945 7.32642 0 1 0 -0.0176496 -0.0273595 0.00249233 -19.0621 -0.13782 5.42887 
8156 510 3 1.008 0.03 16.5186 8.35136 6.96791 16.5186 57.5337 6.96791 0 1 0 0.0151206 -0.03206 -0.00182556 25.0922 4.47067 -18.6449 
1251 79 2 12.01 0.14 22.9799 3.47224 0.987397 121.345 -45.7101 99.3521 2 -1 2 -0.00253919 0.000818585 4.2574e-06 -10.8079 -2.48021 -3.22862 
1256 79 3 1.008 0.03 21.9196 3.74927 0.769669 120.284 -45.4331 99.1344 2 -1 2 -0.0117865 -0.0178571 -0.0168188 19.9766 3.91534 1.78663 
7301 457 2 12.01 0.11 17.1159 2.22551 0.740256 17.1159 100.59 0.740256 0 2 0 -0.00423428 -0.00741327 0.00393289 -51.9077 -38.959 -2.64756 
4684 293 3 1.008 0.03 19.3031 5.07194 1.26786 -29.8793 54.2543 50.4502 -1 1 1 -0.00260141 0.0294003 -0.0122375 9.28624 -28.3051 29.2876 
293 19 2 12.01 0.11 21.0743 3.56737 5.18513 21.0743 101.932 -43.9972 0 2 -1 -0.00621244 0.000114577 -0.00233779 -26.3754 -29.6873 -12.1964 
3274 205 3 1.008 0.03 18.8034 1.71896 4.57214 18.8034 50.9013 102.937 0 1 2 0.0100465 0.014978 -0.016537 4.98992 -8.57433 -0.582469 
3266 205 1 16 -0.4 17.4986 0.512409 5.68496 17.4986 49.6948 104.05 0 1 2 -0.00150609 0.000238553 0.00457377 22.5389 11.0707 -35.826 
3271 205 3 1.008 0.03 18.7006 0.413572 2.50783 18.7006 49.5959 100.873 0 1 2 0.0300146 -0.00828732 -0.00761988 -29.8989 -15.3848 35.9057 
4682 293 3 1.008 0.03 23.3515 6.37502 1.07382 -25.8308 55.5574 50.2562 -1 1 1 -0.025391 -0.0270018 0.0254669 -13.4807 22.6505 9.61364 
1255 79 3 1.008 0.03 23.249 4.04011 1.91674 121.614 -45.1422 100.281 2 -1 2 -0.0192201 -0.000735927 -0.0214821 0.870454 -13.382 -18.3188 
3268 205 2 12.01 0.14 18.5738 0.649677 4.70449 18.5738 49.832 103.069 0 1 2 0.00204199 0.00107332 -0.00735195 -34.0761 -27.3987 10.4897 
4676 293 2 12.01 0.14 22.8111 7.24983 1.54626 -26.3712 56.4322 50.7286 -1 1 1 0.00276312 -0.00557773 -0.000423236 -5.76918 -34.8155 -31.6998 
1257 79 3 1.008 0.03 23.8683 1.4871 1.38235 122.233 -47.6953 99.747 2 -1 2 -0.00821092 -0.00293833 -0.0111009 -2.10191 2.8509 4.65561 
422 27 2 12.01 0.11 17.5154 6.71364 3.74771 17.5154 55.896 52.9301 0 1 1 0.00713782 0.000762258 -0.00941204 38.506 27.9213 -13.8261 
431 27 3 1.008 0.03 17.9169 5.86919 3.23001 17.9169 55.0515 52.4124 0 1 1 -0.0155277 -0.0102368 0.0282373 8.71495 -12.5471 -2.16532 
418 27 1 16 -0.4 18.4742 7.81238 3.65517 18.4742 56.9947 52.8375 0 1 1 0.00257448 -0.00074212 0.0046226 -31.3496 -18.1659 3.52645 
432 27 3 1.008 0.03 17.3393 6.4215 4.76724 17.3393 55.6039 53.9496 0 1 1 -0.0195319 0.0191472 0.00677929 -9.46822 -0.158378 9.21782 
813 51 3 1.008 0.03 24.4971 3.55798 5.05366 172.044 3.55798 -44.1287 3 0 -1 0.00187931 -0.0147557 0.00396213 -17.0052 12.7986 9.69414 
4680 293 3 1.008 0.03 21.079 6.33591 2.42072 -28.1033 55.5183 51.6031 -1 1 1 -0.013226 0.0257367 0.0289017 -1.25648 -11.5473 11.9959 
1258 79 3 1.008 0.03 22.2505 1.75992 2.05687 120.615 -47.4224 100.422 2 -1 2 -0.0225395 0.00867205 0.00694548 -0.778693 -1.39983 11.2407 
289 19 1 16 -0.4 20.5785 4.73138 4.58172 20.5785 103.096 -44.6006 0 2 -1 -0.00135446 0.000673055 -0.00942541 -4.79598 17.9087 -0.18742 
295 19 3 1.008 0.03 19.9772 6.66802 5.03681 19.9772 105.033 -44.1455 0 2 -1 -0.00440866 0.00137861 -0.00308035 5.08869 -7.88538 -3.62691 
297 19 3 1.008 0.03 22.5056 6.33892 4.57581 22.5056 104.704 -44.6065 0 2 -1 0.0221241 0.00924767 0.0053947 6.2937 17.4898 1.90332 
291 19 2 12.01 0.14 20.6127 5.87956 5.44767 20.6127 104.244 -43.7347 0 2 -1 -0.006199 -0.00289419 -0.00203945 10.8769 7.90729 15.3283 
296 19 3 1.008 0.03 20.1039 5.68726 6.41787 20.1039 104.052 -42.7645 0 2 -1 0.00168146 0.00445698 0.0161113 15.0634 -0.932217 -9.63146 
298 19 3 1.008 0.03 21.8867 7.57178 5.85274 21.8867 105.936 -43.3296 0 2 -1 0.00250926 -0.0193588 0.0368227 11.2099 -4.80899 -10.3532 
292 19 2 12.01 0.14 22.0643 6.52157 5.55893 22.0643 104.886 -43.6234 0 2 -1 0.00262119 0.00585517 -0.00921391 -41.3357 -2.69429 -12.7908 
4675 293 2 12.01 0.14 21.2801 6.97838 1.59336 -27.9022 56.1607 50.7757 -1 1 1 -0.00601208 0.00404887 0.00129553 35.9411 -29.4905 -24.4896 
4681 293 3 1.008 0.03 23.244 7.38439 2.49759 -25.9384 56.5667 51.6799 -1 1 1 -0.0354921 0.00688043 0.0121724 1.6566 -1.79279 27.5825 
1252 79 2 12.01 0.14 22.8886 1.93876 1.20741 121.253 -47.2436 99.5721 2 -1 2 -0.00177153 0.000317186 -0.00452773 12.7809 5.59941 0.747125 
7984 499 3 1.008 0.03 24.5681 8.35027 4.89279 -73.7966 -90.0144 54.0751 -2 -2 1 -0.000251181 0.00932977 0.00491605 -16.6818 -1.61436 -6.00307 
300 19 3 1.008 0.03 21.2249 2.76487 4.42112 21.2249 101.13 -44.7612 0 2 -1 -0.0035036 0.0109804 0.00793491 -7.39343 11.3549 14.8235 
294 19 2 12.01 0.11 23.9495 6.46181 7.04472 23.9495 104.827 -42.1376 0 2 -1 0.00401923 0.000592098 -0.00213607 -2.36219 15.3074 59.0988 
4685 293 3 1.008 0.03 18.7697 6.57187 0.769806 -30.4127 55.7542 49.9522 -1 1 1 -0.0181435 0.000267495 0.00970426 4.21949 6.37539 -2.59654 
301 19 3 1.008 0.03 21.9857 3.71205 5.62685 21.9857 102.077 -43.5555 0 2 -1 0.0243351 0.0184487 0.022272 41.6489 9.48138 11.3597 
7309 457 3 1.008 0.03 17.1348 2.27845 1.83696 17.1348 100.643 1.83696 0 2 0 -0.00257405 -0.0203156 0.00572764 -1.02364 4.18165 -7.45601 
4677 293 2 12.01 0.11 19.507 5.79865 0.560438 -29.6754 54.981 49.7428 -1 1 1 -0.00412938 -0.00882761 -0.00303231 7.2112 26.5256 -59.5098 
4679 293 3 1.008 0.03 20.7873 7.86119 1.82052 -28.3951 57.0435 51.0029 -1 1 1 -0.0213927 -0.00119891 0.00309806 -23.2864 29.8807 0.452473 
808 51 3 1.008 0.03 24.4756 1.09984 5.39163 172.023 1.09984 -43.7907 3 0 -1 0.0102146 -0.0104821 0.0037081 -10.9218 11.4122 -7.00546 
4674 293 1 16 -0.4 23.0445 8.45081 0.867087 -26.1379 57.6332 50.0494 -1 1 1 0.000102748 -0.00278657 0.00555881 25.0123 18.6737 -20.5819 
299 19 3 1.008 0.03 20.4639 3.22593 6.03418 20.4639 101.591 -43.1482 0 2 -1 0.00066373 0.0219975 -0.0138407 -3.73282 -0.195919 -11.0866 
3279 205 3 1.008 0.03 18.1434 2.20701 6.81968 18.1434 51.3894 105.184 0 1 2 -0.00953677 -0.0139723 -0.0152626 -4.32141 6.20274 -0.828161 
8152 510 3 1.008 0.03 17.9763 6.17426 7.1957 17.9763 55.3566 7.1957 0 1 0 0.00309725 -0.0231957 -0.0189271 -18.7154 -6.3367 19.0097 
290 19 1 16 -0.4 22.8343 5.88056 6.5171 22.8343 104.245 -42.6653 0 2 -1 0.00219575 -0.000917098 9.19231e-05 -32.4363 -45.7516 23.6779 
3270 205 2 12.01 0.11 17.8335 1.16917 6.86764 17.8335 50.3515 105.232 0 1 2 0.0057912 0.00328132 0.00312742 51.1583 -60.6908 42.1609 
303 19 3 1.008 0.03 24.6351 6.36498 6.32351 24.6351 104.73 -42.8588 0 2 -1 0.0216921 -0.0322819 -0.00951123 46.7564 -0.834866 -40.3182 
304 19 3 1.008 0.03 23.8053 7.52893 7.26448 23.8053 105.894 -41.9179 0 2 -1 -0.0019308 0.00164049 -0.0133881 0.867294 -5.81677 1.90376 
5785 362 3 1.008 0.03 23.2147 3.14332 7.39213 -124.332 -46.039 154.939 -3 -1 3 0.0241193 0.041879 -0.0233032 12.19 1.63303 -1.86395 
7307 457 3 1.008 0.03 18.1057 2.17807 0.417548 18.1057 100.543 0.417548 0 2 0 -0.0220103 -0.0243524 0.00340292 30.5835 1.3948 -12.1983 
10120 636 6 16 -0.53 0.50192 12.4859 6.14005 0.50192 12.4859 55.3224 0 0 1 -0.00683323 -0.00708975 -0.00271272 -12.8196 17.6269 26.7658 
4993 313 1 16 -0.4 2.37757 8.70525 1.34582 -95.9871 8.70525 1.34582 -2 0 0 6.7126e-05 0.00658474 -0.00190325 27.2107 25.7744 2.57899 
4997 313 2 12.01 0.11 3.71168 9.34374 1.23896 -94.653 9.34374 1.23896 -2 0 0 -0.00777743 0.00586035 -0.00341311 -53.6883 14.4571 -13.8622 
5003 313 3 1.008 0.03 4.40711 8.71824 1.71453 -93.9576 8.71824 1.71453 -2 0 0 -0.00287438 0.0104751 0.00380951 23.4665 -12.5008 12.4983 
10121 636 7 12.01 0.35 0.830065 15.0652 6.31917 0.830065 15.0652 55.5015 0 0 1 -0.00472193 -0.0017772 -0.00243994 -8.33898 -4.91825 1.78158 
10124 636 8 19 -0.16 0.997442 15.2578 5.01444 0.997442 15.2578 54.1968 0 0 1 -0.00295825 0.00509725 0.00237509 1.17961 -15.3357 2.5932 
1548 97 3 1.008 0.03 6.24073 12.6842 7.3337 55.4231 -36.4982 -41.8487 1 -1 -1 0.0503114 0.000643111 0.0299466 6.6893 3.02658 -6.46026 
5005 313 3 1.008 0.03 3.77014 10.366 1.72825 -94.5946 10.366 1.72825 -2 0 0 -0.0183994 -0.0203094 0.0091324 -5.10695 -25.8192 -15.8814 
4753 298 1 16 -0.4 3.96308 15.3634 4.21834 53.1454 15.3634 4.21834 1 0 0 0.00245204 0.000892812 -0.00807791 7.01137 -14.6546 16.1226 
4755 298 2 12.01 0.14 3.4327 16.034 3.15 52.6151 16.034 3.15 1 0 0 0.00130082 0.0023609 -0.00181204 43.7624 44.3137 -25.5617 
4760 298 3 1.008 0.03 2.54516 15.5791 2.85132 51.7275 15.5791 2.85132 1 0 0 -0.0107528 0.0252703 -0.0144494 -33.038 -3.27498 -13.9859 
4759 298 3 1.008 0.03 4.16674 16.0041 2.31956 53.3491 16.0041 2.31956 1 0 0 -0.010717 0.0306048 -0.017725 -15.4866 -12.4513 6.39254 
4763 298 3 1.008 0.03 4.11554 13.5471 5.04752 53.2979 13.5471 5.04752 1 0 0 -0.00485186 0.0148837 -0.0137199 -5.51959 -2.05386 -0.719004 
4764 298 3 1.008 0.03 2.69396 13.7462 4.04268 51.8763 13.7462 4.04268 1 0 0 0.00624741 -0.00423432 0.0186322 -29.2728 -4.44936 5.67975 
4757 298 2 12.01 0.11 3.71367 13.9766 4.12646 52.896 13.9766 4.12646 1 0 0 -0.0023074 0.0103489 0.000714956 35.8088 -19.7662 5.20293 
4765 298 3 1.008 0.03 4.18227 13.3884 3.31445 53.3646 13.3884 3.31445 1 0 0 0.0149836 0.00382568 0.00858801 2.40784 18.0017 3.25577 
7276 455 3 1.008 0.03 3.06039 9.64095 5.48461 52.2427 9.64095 54.667 1 0 1 0.0188755 -0.0120675 -0.0223011 -7.47587 -12.7647 -4.08165 
8334 521 3 1.008 0.03 6.87109 13.9797 5.38679 105.236 63.1621 54.5691 2 1 1 0.000840242 0.00840827 -0.00180615 -7.04375 -4.97316 20.4049 
2443 153 3 1.008 0.03 7.2188 8.94993 1.94205 105.583 58.1323 1.94205 2 1 0 -0.0196031 -0.00808607 -0.000184294 23.5562 13.0131 35.3594 
7358 460 3 1.008 0.03 1.62862 13.7257 1.72177 1.62862 -133.821 198.451 0 -3 4 0.0175621 -0.0139201 0.015381 -4.16403 2.78344 3.47543 
7350 460 2 12.01 0.11 1.51128 13.8036 0.645946 1.51128 -133.743 197.375 0 -3 4 -0.000711424 -0.00310474 -0.000328353 -19.9568 -39.0221 -6.25583 
8336 521 3 1.008 0.03 7.73729 14.9596 4.33414 106.102 64.142 53.5165 2 1 1 -0.0114674 0.00962202 -0.0137009 5.43182 -15.7873 -0.569519 
2444 153 3 1.008 0.03 7.24667 9.90581 3.53357 105.611 59.0882 3.53357 2 1 0 -0.0111094 0.00236202 0.00130554 -3.66622 -8.94396 -4.56638 
8322 521 1 16 -0.4 8.16023 12.8873 4.2753 106.525 62.0696 53.4576 2 1 1 -0.00118267 0.00803921 -0.00235261 1.07382 -22.913 -7.07522 
2437 153 2 12.01 0.11 7.71593 9.08015 2.9737 106.081 58.2625 2.9737 2 1 0 0.00222806 -0.0134373 0.00252484 -43.1479 -24.0937 -14.8318 
8326 521 2 12.01 0.11 7.84906 14.0524 4.96436 106.214 63.2348 54.1467 2 1 1 0.00754357 0.00521942 0.00180688 5.78914 37.2174 -25.6909 
8907 557 3 1.008 0.03 0.509631 16.6623 1.57947 -48.6727 115.027 99.9442 -1 2 2 0.0195742 -0.00236786 -0.0176575 23.5732 -7.68063 -16.0619 
8891 556 3 1.008 0.03 6.37389 14.2807 0.873386 104.739 14.2807 -48.309 2 0 -1 -0.0200175 0.00720452 0.000119793 -8.97172 5.32391 11.0972 
10122 636 8 19 -0.16 2.01935 14.9664 6.88387 2.01935 14.9664 56.0662 0 0 1 -0.00204494 0.000446254 -0.00275087 6.75195 4.97903 -4.82193 
1544 97 3 1.008 0.03 6.79318 10.4144 7.35619 55.9755 -38.7679 -41.8262 1 -1 -1 0.001675 -0.0136029 0.00301086 -16.535 -14.3145 2.03992 
7932 496 3 1.008 0.03 1.04351 9.84743 4.01218 1.04351 9.84743 53.1945 0 0 1 0.00755172 -0.00103452 -0.0170566 -10.4763 -7.05038 6.02891 
9110 570 2 12.01 0.11 14.5203 9.9174 1.14253 162.067 -88.4473 50.3249 3 -2 1 -0.0021211 -0.0074262 0.0129262 -50.2979 46.8463 -17.765 
9112 570 3 1.008 0.03 12.4329 9.62043 5.11784 159.98 -88.7443 54.3002 3 -2 1 0.0103644 0.0206037 0.000856837 -2.60814 6.58439 -4.4923 
9113 570 3 1.008 0.03 12.9014 8.78065 2.81298 160.448 -89.584 51.9953 3 -2 1 0.0396896 -0.00734378 -0.0195219 -9.34995 -21.587 -8.54976 
8050 504 1 16 -0.4 14.4779 14.6248 1.13788 112.843 63.8072 99.5026 2 1 2 -0.0087659 0.00201222 0.00458776 13.8549 -18.5538 17.3622 
7687 481 3 1.008 0.03 11.8204 10.8688 6.893 11.8204 158.416 6.893 0 3 0 -0.00500545 -0.0107816 0.00324739 15.1533 -14.2605 -39.682 
8330 521 3 1.008 0.03 9.25373 12.0972 2.82861 107.618 61.2795 52.011 2 1 1 0.020347 -0.0259659 0.025696 -4.11582 -27.853 -13.9491 
2445 153 3 1.008 0.03 8.73022 9.33457 2.91868 107.095 58.5169 2.91868 2 1 0 0.0279419 0.0242637 0.0025969 27.7309 8.49985 -10.6704 
8324 521 2 12.01 0.14 9.27172 12.9744 3.39616 107.636 62.1567 52.5785 2 1 1 -0.000694099 -0.00480067 -0.00556651 -30.0038 17.4667 -11.1625 
8329 521 3 1.008 0.03 9.07069 13.7187 2.61293 107.435 62.9011 51.7953 2 1 1 0.000637291 0.0109759 0.00837707 10.1199 4.77106 9.45046 
8335 521 3 1.008 0.03 8.67634 14.2843 5.61446 107.041 63.4666 54.7968 2 1 1 -0.00812601 -0.0349254 -0.00762859 -7.57235 1.6506 19.2198 
9111 570 3 1.008 0.03 14.088 9.18304 5.00273 161.635 -89.1817 54.1851 3 -2 1 0.0213712 -0.00565905 0.00208025 -6.71569 14.5462 -10.296 
7691 481 3 1.008 0.03 9.1292 11.1444 6.72069 9.1292 158.691 6.72069 0 3 0 -0.0203215 -0.00315037 0.013096 12.4729 9.22168 16.3668 
9116 570 3 1.008 0.03 15.6282 11.3064 4.07123 163.175 -87.0583 53.2536 3 -2 1 0.00333246 -0.00569655 -6.9158e-05 -20.8526 8.97409 33.6189 
9716 609 7 12.01 0.35 15.1779 16.1772 6.89523 15.1779 -33.0052 6.89523 0 -1 0 0.00526017 0.00811367 -0.000905692 -44.3327 26.5729 37.4156 
9117 570 3 1.008 0.03 15.1144 12.7123 5.08481 162.661 -85.6524 54.2672 3 -2 1 -0.000368679 -0.00321423 0.00147008 -6.94882 -22.8979 -0.154677 
9105 570 1 16 -0.4 13.6605 11.2488 4.88353 161.208 -87.1159 54.0659 3 -2 1 0.00101541 -0.00707312 0.00681427 -44.3078 12.5981 3.07156 
9109 570 2 12.01 0.11 14.9775 11.6027 4.96578 162.525 -86.762 54.1481 3 -2 1 -0.0024056 0.0103035 0.00690605 65.8054 8.19563 -4.88182 
8321 521 1 16 -0.4 10.8166 14.2188 4.64352 109.181 63.4011 53.8259 2 1 1 0.00319648 0.00355792 0.000839824 7.10163 2.99783 -6.07191 
8328 521 3 1.008 0.03 10.6915 12.2123 4.79624 109.056 61.3947 53.9786 2 1 1 -0.00604384 5.0089e-05 0.00261509 -2.85483 -16.3653 -2.25252 
8323 521 2 12.01 0.14 10.6237 12.9633 4.0324 108.988 62.1457 53.2147 2 1 1 0.000607101 -0.00244674 -0.00690862 38.6333 2.06053 -44.9334 
8327 521 3 1.008 0.03 11.3809 12.712 3.16844 109.746 61.8943 52.3508 2 1 1 -0.0387408 -0.0184061 -0.00801627 -29.3395 17.0088 47.8618 
8064 504 3 1.008 0.03 15.7026 14.4056 2.71908 114.067 63.5879 101.084 2 1 2 0.00787221 0.0408127 -0.0110722 22.9974 11.2778 12.9832 
9115 570 3 1.008 0.03 15.361 11.1178 5.88857 162.908 -87.2469 55.0709 3 -2 1 0.0077201 -0.00965175 -0.0167993 0.30719 6.44558 -13.8525 
8062 504 3 1.008 0.03 14.2095 13.6828 3.0108 112.574 62.8652 101.375 2 1 2 0.0115073 -0.009995 0.01782 -12.5334 -3.70962 4.89921 
8054 504 2 12.01 0.11 14.9575 13.8295 2.25802 113.322 63.0118 100.623 2 1 2 -0.00117839 0.00288761 -0.000354201 -15.0372 -1.64225 -37.3907 
8333 521 3 1.008 0.03 12.8486 14.7131 4.86099 111.213 63.8955 54.0433 2 1 1 0.00652266 0.0141796 0.00526647 1.68734 -10.9657 -16.5333 
9107 570 2 12.01 0.14 13.3433 9.90875 4.59388 160.89 -88.4559 53.7762 3 -2 1 -0.00564615 -0.00578989 0.00240866 12.2001 -27.4927 1.31647 
8325 521 2 12.01 0.11 12.0242 14.2102 5.35497 110.389 63.3925 54.5373 2 1 1 -0.000728128 -0.000742625 0.00702233 22.0425 14.084 30.2309 
8331 521 3 1.008 0.03 12.0211 14.892 6.22456 110.386 64.0743 55.4069 2 1 1 0.0197755 -0.0144311 -0.00900059 -13.6388 -11.8119 -4.16806 
8332 521 3 1.008 0.03 12.3003 13.1997 5.71567 110.665 62.3821 54.898 2 1 1 0.00561158 -0.0249182 -0.0343005 4.89769 14.8116 -0.404681 
9718 609 8 19 -0.16 15.8377 15.2715 6.22119 15.8377 -33.9109 6.22119 0 -1 0 0.00375252 0.000437203 -0.00295626 -3.52069 -8.42598 -21.1514 
8063 504 3 1.008 0.03 15.3863 12.851 1.96459 113.751 62.0334 100.329 2 1 2 -0.020223 0.0102816 0.0215994 -5.06958 11.0755 0.942127 
9108 570 2 12.01 0.14 13.1433 9.77401 3.06976 160.69 -88.5907 52.2521 3 -2 1 -0.00465501 0.00736379 -0.00519466 43.4401 40.205 10.7073 
9106 570 1 16 -0.4 14.421 10.1762 2.52178 161.968 -88.1885 51.7041 3 -2 1 0.00154457 -0.00289299 0.00129938 -19.8146 -15.3548 -1.51169 
9799 614 8 19 -0.16 9.3083 16.5471 1.71905 9.3083 16.5471 1.71905 0 0 0 0.00412311 -0.000563981 -0.0017237 5.76071 6.5894 10.0728 
9114 570 3 1.008 0.03 12.4323 10.5146 2.70076 159.979 -87.8501 51.8831 3 -2 1 0.00820532 0.0151351 0.00064699 -8.53847 -8.37888 0.334411 
8057 504 3 1.008 0.03 12.603 13.8936 0.883822 110.968 63.076 99.2485 2 1 2 -0.0265603 -0.0470722 -0.0356928 -21.1068 5.00425 11.7629 
9119 570 3 1.008 0.03 14.6082 8.883 0.980348 162.155 -89.4817 50.1627 3 -2 1 -0.00328235 0.00948369 0.00113117 1.95912 -26.1761 -9.67535 
9120 570 3 1.008 0.03 13.636 10.3772 0.554958 161.183 -87.9875 49.7373 3 -2 1 -0.0108818 0.00612426 0.0099085 29.9263 -24.2083 24.4775 
9719 609 8 19 -0.16 14.1375 16.7496 6.19238 14.1375 -32.4327 6.19238 0 -1 0 0.00415768 -0.000739239 0.000319952 38.9904 -37.6222 4.58315 
7693 481 3 1.008 0.03 10.2668 12.5214 6.83933 10.2668 160.068 6.83933 0 3 0 -0.00651667 0.00635059 0.0109732 -9.32646 -4.39389 12.3476 
9118 570 3 1.008 0.03 15.3549 10.4464 0.742006 162.902 -87.9183 49.9244 3 -2 1 0.0246708 -0.0164293 0.00683991 18.1612 1.05641 -3.33026 
4949 310 2 12.01 0.11 24.86 16.5473 0.563436 74.0424 16.5473 0.563436 1 0 0 0.0030442 -0.00288206 -0.00576624 -12.6809 -36.2008 13.9737 
426 27 3 1.008 0.03 16.8198 8.98277 4.22553 16.8198 58.1651 53.4079 0 1 1 -0.00511118 -0.0161839 0.00621203 -12.0448 -0.0643174 -0.126227 
425 27 3 1.008 0.03 18.2983 9.24371 5.11355 18.2983 58.4261 54.2959 0 1 1 -0.00762201 -0.0216266 -0.00376859 -4.02884 -1.10753 -14.5915 
3021 189 3 1.008 0.03 23.6272 16.3693 6.43503 23.6272 -32.813 55.6174 0 -1 1 -0.00471745 0.00611226 0.000472456 -9.41526 10.7117 1.61092 
420 27 2 12.01 0.14 17.8861 9.03147 4.10227 17.8861 58.2138 53.2846 0 1 1 0.00547433 -0.00226396 -0.00346529 14.9897 -18.8006 20.6341 
7981 499 3 1.008 0.03 20.9861 9.38088 3.94219 -77.3786 -88.9838 53.1245 -2 -2 1 -0.00295676 -0.0187592 0.0267767 6.51879 8.38979 -3.93962 
4271 267 3 1.008 0.03 19.2025 15.9148 7.0346 117.567 15.9148 154.582 2 0 3 -0.0384834 -0.00213414 -0.014122 6.69558 -22.2132 -6.66461 
423 27 3 1.008 0.03 17.4384 10.2829 2.32812 17.4384 59.4653 51.5105 0 1 1 0.00197004 0.0210525 0.0100787 9.59294 -0.871696 32.4426 