ITEM: TIMESTEP
3450000
ITEM: NUMBER OF ATOMS
10479
ITEM: BOX BOUNDS pp pp pp
4.0882558190751794e-01 4.9591174418091420e+01
4.0882558190751794e-01 4.9591174418091420e+01
4.0882558190751794e-01 4.9591174418091420e+01
ITEM: ATOMS id mol type mass q x y z xu yu zu ix iy iz vx vy vz fx fy fz 
9144 572 3 1.008 0.03 2.21056 7.43095 2.635 100.575 56.6133 2.635 2 1 0 -0.00389966 -0.00719184 0.0207465 10.0121 -9.90121 -7.91299 
7621 477 2 12.01 0.11 8.21659 0.486425 3.21076 8.21659 0.486425 52.3931 0 0 1 0.00227256 -0.00695922 0.000736133 16.2987 -13.5932 -10.1264 
9140 572 2 12.01 0.14 3.23848 7.29596 4.48771 101.603 56.4783 4.48771 2 1 0 -5.45201e-05 -0.00313078 0.00287517 -12.9382 -10.5151 -10.7461 
9139 572 2 12.01 0.14 3.25809 7.34234 2.96846 101.623 56.5247 2.96846 2 1 0 -0.00344251 0.00769411 -0.00356338 -24.3695 2.7588 9.18357 
7623 477 3 1.008 0.03 6.12028 2.08545 3.01678 6.12028 2.08545 52.1991 0 0 1 0.00240309 0.0116533 -0.00864479 -21.3904 1.64521 -15.856 
9138 572 1 16 -0.4 2.12897 6.47312 4.91318 100.494 55.6555 4.91318 2 1 0 0.00329066 -0.00535209 -0.00624621 14.2393 20.3479 14.7681 
7618 477 1 16 -0.4 7.12207 4.42699 1.62309 7.12207 4.42699 50.8054 0 0 1 -0.00253322 -0.00742175 -0.00426707 -4.33132 14.5751 14.6922 
7619 477 2 12.01 0.14 7.07346 2.49216 3.23202 7.07346 2.49216 52.4144 0 0 1 0.00216459 0.0055153 -0.00038119 -10.5264 52.5259 14.6661 
7620 477 2 12.01 0.14 7.24439 4.09404 3.02265 7.24439 4.09404 52.205 0 0 1 0.00796626 -9.63524e-05 -0.00687586 31.6145 -48.2551 -2.71574 
7617 477 1 16 -0.4 8.05927 1.72951 2.63121 8.05927 1.72951 51.8136 0 0 1 0.00788248 -0.00312886 0.00508703 18.8033 17.8423 -17.9571 
7626 477 3 1.008 0.03 8.2722 4.28847 3.42128 8.2722 4.28847 52.6036 0 0 1 -0.011414 -0.00514839 0.0172781 -15.7449 1.02433 -16.851 
7625 477 3 1.008 0.03 6.64256 4.73112 3.66472 6.64256 4.73112 52.8471 0 0 1 0.00580296 0.0076651 -0.0125435 -14.1613 -13.6541 -11.1477 
7624 477 3 1.008 0.03 7.1121 2.2819 4.28174 7.1121 2.2819 53.4641 0 0 1 0.00796048 -0.0219694 0.0154394 3.02833 7.62526 15.8253 
9152 572 3 1.008 0.03 2.07718 4.82342 3.61458 100.442 54.0058 3.61458 2 1 0 0.0235599 -0.00959035 -0.0068946 -0.566904 14.3734 28.1267 
9142 572 2 12.01 0.11 2.32617 5.11832 4.68169 100.691 54.3007 4.68169 2 1 0 0.00279574 -0.00378719 -0.000828515 40.0802 -17.1177 -81.6554 
9137 572 1 16 -0.4 4.05059 6.30693 2.47643 102.415 55.4893 2.47643 2 1 0 -0.0022921 0.000865022 0.00606787 -2.33748 -20.2586 -8.83599 
9151 572 3 1.008 0.03 1.82138 4.46837 5.26889 100.186 53.6507 5.26889 2 1 0 0.00208516 -0.0135771 -0.00507082 -28.4362 -22.4573 36.2921 
7622 477 2 12.01 0.11 7.44267 5.81315 1.40331 7.44267 5.81315 50.5857 0 0 1 0.00180432 -0.00977534 -8.06136e-05 -15.5188 7.61164 -37.9726 
7630 477 3 1.008 0.03 6.75673 6.56247 1.9108 6.75673 6.56247 51.0931 0 0 1 0.00273139 0.00665573 -0.00129364 24.5564 -22.9861 -2.80459 
6257 392 1 16 -0.4 7.77989 5.11589 5.79218 7.77989 5.11589 104.157 0 0 2 0.000709209 -0.000224328 -0.00205821 2.81416 25.8725 -5.65163 
9145 572 3 1.008 0.03 4.23138 7.01867 4.84683 102.596 56.201 4.84683 2 1 0 0.00730571 -0.0047374 0.0055389 -8.41817 -3.37737 7.68323 
9147 572 3 1.008 0.03 2.95716 5.80131 0.712369 101.322 54.9837 0.712369 2 1 0 0.00184782 -0.000511567 0.0142043 6.45996 -2.38412 5.63181 
8669 542 3 1.008 0.03 4.75718 2.99054 0.453338 4.75718 52.1729 49.6357 0 1 1 -0.0121762 0.00353026 0.0242427 -11.2062 14.7624 -1.4387 
9149 572 3 1.008 0.03 4.7431 5.37546 0.812487 103.108 54.5578 0.812487 2 1 0 -0.00894343 0.000112636 0.0120138 -17.1242 1.82382 -0.89394 
9150 572 3 1.008 0.03 3.37164 4.78989 4.70982 101.736 53.9722 4.70982 2 1 0 -0.0159834 0.00667061 0.000337647 -0.986725 8.1974 9.80898 
6261 392 2 12.01 0.11 7.31948 6.41035 5.37049 7.31948 6.41035 103.735 0 0 2 -0.00157118 4.57047e-05 0.00697585 -2.96718 -29.8399 -34.2331 
6269 392 3 1.008 0.03 7.41076 7.11936 6.12056 7.41076 7.11936 104.485 0 0 2 -0.00736228 -0.0202492 -0.0167851 -5.80406 22.4237 30.3139 
9141 572 2 12.01 0.11 3.95222 6.10765 1.06877 102.317 55.29 1.06877 2 1 0 -0.000357657 0.000505552 0.00373437 21.14 14.4385 -11.518 
8818 552 1 16 -0.4 3.7989 0.750469 5.84998 3.7989 99.1152 104.215 0 2 2 0.00594072 -0.000541162 -0.000962592 -11.5261 25.2944 -1.94119 
6264 392 3 1.008 0.03 7.15182 3.72655 6.98934 7.15182 3.72655 105.354 0 0 2 -0.00227689 -0.0257621 -0.0004538 1.7126 -9.76873 -1.46633 
8659 542 2 12.01 0.14 3.00323 1.19992 1.11427 3.00323 50.3823 50.2966 0 1 1 0.00358594 -0.00532534 -0.0053026 28.5263 47.1524 5.38019 
9143 572 3 1.008 0.03 3.72829 8.22922 2.67489 102.093 57.4116 2.67489 2 1 0 -0.019662 -0.0123741 -0.0281995 13.0995 26.6572 -9.58714 
6259 392 2 12.01 0.14 7.25523 4.79486 7.04654 7.25523 4.79486 105.411 0 0 2 0.00449853 -0.00640174 -0.00553136 17.664 -23.0459 15.9139 
8657 542 1 16 -0.4 4.38929 0.953847 0.795428 4.38929 50.1362 49.9778 0 1 1 0.00219637 0.0115681 0.00109135 -0.504809 8.29736 2.52359 
8663 542 3 1.008 0.03 2.92888 2.05671 1.86245 2.92888 51.2391 51.0448 0 1 1 0.0396754 -0.00217237 0.000326695 4.35156 -28.9409 -16.9344 
7628 477 3 1.008 0.03 8.46954 0.539541 4.26836 8.46954 0.539541 53.4507 0 0 1 -0.000916414 -0.0201193 -0.0149198 -2.09042 -4.43538 1.95637 
9148 572 3 1.008 0.03 4.25711 7.01355 0.493888 102.622 56.1959 0.493888 2 1 0 -0.0127504 0.00430884 0.00168745 -7.78427 -10.1963 11.8354 
5391 337 3 1.008 0.03 7.32969 1.09035 6.95742 105.694 -146.457 56.1398 2 -3 1 -0.00789683 -0.00260721 -0.00435294 -22.2216 -3.87222 17.4124 
5071 317 3 1.008 0.03 0.719909 2.12913 3.19809 0.719909 100.494 3.19809 0 2 0 -0.00621148 -0.0113801 -0.00433812 -8.81808 9.17604 13.3336 
2252 141 3 1.008 0.03 0.690407 8.28706 4.22537 0.690407 8.28706 53.4077 0 0 1 0.0115746 0.0128889 0.0144246 -40.3113 3.9366 -7.72313 
9146 572 3 1.008 0.03 3.02604 8.30635 4.80215 101.391 57.4887 4.80215 2 1 0 0.00065068 0.000369552 -0.000548779 0.673247 5.65295 8.47385 
8654 541 3 1.008 0.03 5.80932 8.53957 4.75991 -43.373 -40.6428 -44.4224 -1 -1 -1 -0.00261227 0.00163359 -0.0218418 2.23791 12.5085 7.88545 
6263 392 3 1.008 0.03 6.22759 5.05957 7.16668 6.22759 5.05957 105.531 0 0 2 -0.00411103 0.00164105 0.0235827 -11.4055 15.0363 5.63851 
6267 392 3 1.008 0.03 7.98161 6.82567 4.61101 7.98161 6.82567 102.976 0 0 2 0.00163518 0.00366237 -0.0200401 -0.7601 -6.55791 -4.80546 
7631 477 3 1.008 0.03 8.50416 5.90331 1.57139 8.50416 5.90331 50.7537 0 0 1 -0.00545977 -0.0130922 -0.0156194 4.8618 12.0147 16.3809 
8827 552 3 1.008 0.03 4.3225 2.95692 6.82059 4.3225 101.322 105.185 0 2 2 -0.0235464 -0.0112996 -0.000883727 -14.0865 13.6899 19.2444 
6268 392 3 1.008 0.03 6.28998 6.33939 4.91522 6.28998 6.33939 103.28 0 0 2 0.00980661 -0.0137937 0.0140641 22.5879 7.78428 19.086 
8824 552 3 1.008 0.03 1.79789 2.0519 7.05299 1.79789 100.417 105.418 0 2 2 -0.00733108 -0.00279441 -0.00993879 11.5356 -7.9799 4.34613 
8828 552 3 1.008 0.03 3.0528 3.98153 7.42611 3.0528 102.346 105.791 0 2 2 0.00874072 -0.0112559 -0.0110715 -28.1763 33.884 -6.87458 
426 27 3 1.008 0.03 16.4378 1.28565 4.89762 16.4378 50.468 54.08 0 1 1 -0.0123846 -0.0207677 -0.0131 -2.62635 -7.9985 -0.128291 
6239 390 3 1.008 0.03 13.3731 7.97556 0.746374 13.3731 -41.2068 148.293 0 -1 3 0.0278606 0.00667827 -0.00464462 -8.84667 17.4946 -13.3929 
6871 430 3 1.008 0.03 11.2157 0.921348 1.20359 60.3981 0.921348 1.20359 1 0 0 -0.0217673 -0.00545181 0.00231889 -25.9811 -9.57065 -6.656 
422 27 2 12.01 0.11 15.3718 2.32922 2.8906 15.3718 51.5116 52.0729 0 1 1 -0.000737208 0.00474189 0.0111824 -13.4596 1.3979 -25.9931 
8517 533 2 12.01 0.11 9.87982 2.744 5.62691 59.0622 51.9263 5.62691 1 1 0 0.000694428 -0.00253214 0.0066427 14.7751 -45.0157 -1.17216 
6867 430 2 12.01 0.14 12.0966 1.40864 1.50669 61.279 1.40864 1.50669 1 0 0 0.000720426 -0.00372492 -0.0014121 16.4626 45.5803 -39.4531 
8520 533 3 1.008 0.03 12.4529 0.644356 5.21406 61.6352 49.8267 5.21406 1 1 0 0.0116418 -0.00348552 0.0127378 19.8777 3.73953 0.973003 
6873 430 3 1.008 0.03 11.1612 2.80475 2.7812 60.3435 2.80475 2.7812 1 0 0 0.0124257 0.00890576 -0.0200631 -26.898 -2.09126 21.9541 
6868 430 2 12.01 0.14 11.7908 2.86294 1.95538 60.9731 2.86294 1.95538 1 0 0 -0.00367997 -0.00922792 -0.00186775 -1.86415 32.9827 -24.4312 
418 27 1 16 -0.4 16.6846 2.58695 3.28721 16.6846 51.7693 52.4696 0 1 1 0.000635804 0.00474187 -0.000400505 23.8976 -6.17085 8.91634 
7266 455 1 16 -0.4 15.0833 6.88779 3.18884 64.2656 6.88779 52.3712 1 0 1 -0.00328367 0.00241878 -0.00526467 5.52408 14.7379 9.58048 
424 27 3 1.008 0.03 15.703 3.75825 5.39296 15.703 52.9406 54.5753 0 1 1 0.0319469 0.0190839 0.0157443 13.4923 -10.0459 -3.17359 
419 27 2 12.01 0.14 16.6676 3.24887 5.61461 16.6676 52.4312 54.797 0 1 1 -0.00352486 0.00860433 -0.000168595 -3.59457 75.4534 9.16997 
8515 533 2 12.01 0.14 11.4512 0.816197 5.53085 60.6336 49.9985 5.53085 1 1 0 -0.00329736 -0.0126909 -0.00120254 -22.9239 8.79079 -19.9875 
8513 533 1 16 -0.4 11.2558 2.24209 5.69887 60.4381 51.4244 5.69887 1 1 0 -0.00219648 -0.00414524 -0.00155773 -18.2501 -1.09739 7.19502 
7280 455 3 1.008 0.03 15.6144 5.47213 1.87354 64.7967 5.47213 51.0559 1 0 1 -0.0165261 0.00961595 -0.00681025 -7.82771 -4.90967 5.57408 
8525 533 3 1.008 0.03 9.6082 2.47363 4.60023 58.7906 51.656 4.60023 1 1 0 0.0130918 0.00951188 -0.000145111 -6.91557 8.11793 6.82394 
6240 390 3 1.008 0.03 11.6172 8.11825 0.95328 11.6172 -41.0641 148.5 0 -1 3 -0.014782 0.0233879 0.0126363 37.4482 24.6555 -32.8856 
6874 430 3 1.008 0.03 12.5971 3.43831 2.36948 61.7795 3.43831 2.36948 1 0 0 -0.022673 0.0142485 -0.00169393 19.8001 -12.2491 3.81656 
7279 455 3 1.008 0.03 14.1583 6.34291 1.35516 63.3406 6.34291 50.5375 1 0 1 -0.0339086 0.00794698 -0.0026995 11.9351 -23.7153 22.9237 
7270 455 2 12.01 0.11 14.6871 5.89825 2.23503 63.8695 5.89825 51.4174 1 0 1 2.22986e-05 0.00621988 -0.00947255 11.9305 47.2804 -20.2662 
7278 455 3 1.008 0.03 14.1617 5.12498 2.68079 63.344 5.12498 51.8631 1 0 1 0.0215294 0.00251881 -0.00754923 -23.2294 -24.6885 12.8528 
8523 533 3 1.008 0.03 9.12633 2.27229 6.33117 58.3087 51.4546 6.33117 1 1 0 0.00862133 0.00467588 0.00386954 25.6085 12.2797 -15.4383 
8524 533 3 1.008 0.03 9.86772 3.82034 5.71048 59.0501 53.0027 5.71048 1 1 0 0.0215878 -0.0169773 0.00941927 -3.09735 1.99946 4.77639 
6872 430 3 1.008 0.03 12.5475 0.808347 2.20966 61.7299 0.808347 2.20966 1 0 0 0.0109073 -0.00139403 -0.0213059 10.2808 -18.164 40.7612 
7274 455 3 1.008 0.03 14.6268 8.36386 4.51255 63.8091 8.36386 53.6949 1 0 1 0.00449108 -0.00152833 -0.0326798 12.4484 14.0579 20.6767 
431 27 3 1.008 0.03 14.7107 2.90815 3.53373 14.7107 52.0905 52.7161 0 1 1 0.0246314 0.0201427 -0.026397 -4.85596 -0.970047 -3.39687 
7272 455 3 1.008 0.03 13.5853 6.03624 4.98614 62.7676 6.03624 54.1685 1 0 1 0.000873089 -0.0165858 0.0183363 14.1466 -13.447 2.19219 
7268 455 2 12.01 0.14 14.1087 7.75447 3.837 63.291 7.75447 53.0193 1 0 1 -0.0106116 0.00636193 0.000617621 14.987 -29.9089 -56.1361 
7267 455 2 12.01 0.14 13.1306 6.88823 4.53562 62.3129 6.88823 53.718 1 0 1 -0.000266865 0.00188711 -0.0108058 -36.0886 -10.1604 31.9594 
7276 455 3 1.008 0.03 11.505 4.62122 4.36588 60.6873 4.62122 53.5482 1 0 1 0.014355 -0.0129002 -0.00341746 1.69982 4.38333 -1.51708 
7275 455 3 1.008 0.03 10.2366 5.59458 3.81345 59.419 5.59458 52.9958 1 0 1 -0.00657357 0.00138156 0.000367685 -27.6175 3.73051 -11.5013 
7265 455 1 16 -0.4 12.0915 6.44435 3.682 61.2738 6.44435 52.8644 1 0 1 0.00315694 0.00461853 0.00448029 -6.24008 8.71925 -0.297816 
7269 455 2 12.01 0.11 11.1277 5.6477 4.35931 60.3101 5.6477 53.5417 1 0 1 0.00329343 0.001003 0.00517609 36.1059 -13.9201 21.0919 
7273 455 3 1.008 0.03 13.6654 8.40339 3.0826 62.8477 8.40339 52.2649 1 0 1 0.00525508 -0.0349744 0.00146494 -4.87859 0.971674 3.34848 
6866 430 1 16 -0.4 11.3019 3.88164 1.01592 60.4842 3.88164 1.01592 1 0 0 0.00964498 -0.000846207 0.00209178 18.4189 -24.8472 21.3493 
6879 430 3 1.008 0.03 9.31586 3.18144 0.830919 58.4982 3.18144 0.830919 1 0 0 0.0119104 0.0139419 -0.0185044 -4.8563 -13.0761 20.1452 
430 27 3 1.008 0.03 15.1371 1.25358 3.02125 15.1371 50.4359 52.2036 0 1 1 0.00891279 0.0050459 0.00492486 -0.023007 11.4183 -7.17443 
7271 455 3 1.008 0.03 12.7 7.36655 5.42658 61.8824 7.36655 54.6089 1 0 1 0.0194752 -0.00995296 0.0293517 1.82093 7.13639 -10.3515 
423 27 3 1.008 0.03 16.5012 2.90774 6.62207 16.5012 52.0901 55.8044 0 1 1 -0.00559779 0.0306246 -0.00860934 3.38883 -13.4213 5.56898 
7277 455 3 1.008 0.03 10.9729 5.86953 5.43598 60.1553 5.86953 54.6183 1 0 1 0.0137614 0.017439 -0.00385737 -3.57338 7.13952 -15.0591 
6865 430 1 16 -0.4 13.0672 1.42864 0.469001 62.2495 1.42864 0.469001 1 0 0 0.00623273 -0.00190554 -6.09238e-05 -14.8257 19.7621 2.94441 
432 27 3 1.008 0.03 15.2395 2.66824 1.80478 15.2395 51.8506 50.9871 0 1 1 -0.00111093 -0.0138068 -0.00261599 1.21781 -14.0605 34.9438 
3610 226 3 1.008 0.03 16.9731 5.55316 0.489094 66.1555 5.55316 0.489094 1 0 0 -0.011116 0.0107283 0.0287489 9.96805 0.763174 21.8426 
2023 127 3 1.008 0.03 22.0507 0.794764 6.70517 -27.1316 49.9771 6.70517 -1 1 0 -0.00522857 0.000493275 0.00528091 3.61677 -9.34865 9.67199 
420 27 2 12.01 0.14 16.9998 2.16894 4.63134 16.9998 51.3513 53.8137 0 1 1 0.00297297 -0.00822055 -0.00103239 5.4807 -9.91033 -12.0868 
3605 226 2 12.01 0.11 19.905 6.16419 0.819196 69.0874 6.16419 0.819196 1 0 0 -0.00418326 -0.00189161 -0.00149295 17.0395 -18.8383 4.50591 
10287 647 8 19 -0.16 20.9368 7.69428 6.46566 20.9368 56.8766 6.46566 0 1 0 -0.00506942 -0.0032077 -0.00119733 -3.86078 21.5155 -31.7071 
3613 226 3 1.008 0.03 20.7183 6.17202 1.57781 69.9007 6.17202 1.57781 1 0 0 0.00260741 0.0142326 -0.0557128 -8.5954 7.06095 -15.5129 
3612 226 3 1.008 0.03 19.1081 6.78288 1.14037 68.2905 6.78288 1.14037 1 0 0 0.0172677 0.0100083 -0.00447268 -14.4392 15.5156 5.10119 
417 27 1 16 -0.4 17.6893 4.3102 5.73939 17.6893 53.4925 54.9217 0 1 1 -0.00203544 -0.00739154 0.00117691 -14.5564 -39.8239 16.7225 
4687 293 3 1.008 0.03 17.8136 8.4978 7.18846 -31.3688 57.6802 56.3708 -1 1 1 -0.00932822 0.0147274 0.0350865 6.35132 -20.9319 0.26885 
429 27 3 1.008 0.03 18.5024 4.18994 3.84842 18.5024 53.3723 53.0308 0 1 1 -0.00854905 0.0146366 -0.00740088 9.3219 -10.1981 -7.23689 
10324 649 8 19 -0.16 22.3925 4.31714 1.1216 22.3925 4.31714 1.1216 0 0 0 0.00600738 0.00163311 0.00155227 -1.25473 22.2377 15.6512 
10320 649 5 32.06 1.02 24.1895 2.36028 0.782543 24.1895 2.36028 0.782543 0 0 0 -0.00181302 -0.00467866 0.00198566 -11.9875 60.0383 -24.2735 
10296 647 8 19 -0.16 22.6293 7.87751 4.06713 22.6293 57.0599 4.06713 0 1 0 0.00453771 -0.00435789 -0.00375637 -19.6127 -27.0568 13.5762 
2031 127 3 1.008 0.03 21.3648 2.65977 2.25006 -27.8175 51.8421 2.25006 -1 1 0 0.0173453 0.030176 0.0157138 8.15048 -4.02944 -11.781 
2032 127 3 1.008 0.03 20.0454 1.88696 3.01988 -29.1369 51.0693 3.01988 -1 1 0 0.0152236 0.0139591 -0.0214338 -3.06332 -14.1514 7.09705 
2018 127 1 16 -0.4 21.8063 2.21661 4.18971 -27.376 51.399 4.18971 -1 1 0 0.00412014 0.000977187 -0.00839431 19.6656 -17.4538 16.4431 
2017 127 1 16 -0.4 23.5048 2.10794 6.08824 -25.6776 51.2903 6.08824 -1 1 0 -0.000184456 -0.00118931 0.00303642 1.63236 3.25145 -26.6557 
2030 127 3 1.008 0.03 20.4685 3.51797 3.37749 -28.7139 52.7003 3.37749 -1 1 0 -0.0127449 -0.00149609 0.00381882 2.63765 -0.140776 1.04156 
10291 647 6 16 -0.53 23.579 4.20555 4.40364 23.579 53.3879 4.40364 0 1 0 0.00197299 -0.00690468 0.00260167 -9.50305 23.1914 5.90038 
10294 647 8 19 -0.16 22.7782 6.3742 2.67849 22.7782 55.5565 2.67849 0 1 0 0.00337626 0.00592764 0.00078898 13.8763 -13.2094 -12.757 
10293 647 7 12.01 0.35 22.4299 6.547 3.92273 22.4299 55.7294 3.92273 0 1 0 0.00366544 -0.00816924 0.000909969 -7.84766 10.853 -3.22458 
10290 647 5 32.06 1.02 23.4454 5.5032 5.08812 23.4454 54.6855 5.08812 0 1 0 0.000574893 -0.00125433 -0.00737329 6.04356 -10.7982 6.62279 
10322 649 6 16 -0.53 23.9216 2.13849 2.16895 23.9216 2.13849 2.16895 0 0 0 -0.00248158 -0.00793213 0.00197548 -17.5936 -7.52439 29.835 
2022 127 2 12.01 0.11 20.8917 2.53117 3.19272 -28.2906 51.7135 3.19272 -1 1 0 0.00386776 0.000186148 0.0138382 -24.0893 28.6855 -15.2561 
10458 669 9 24.305 2 23.7571 2.19906 4.18931 -25.4252 51.3814 4.18931 -1 1 0 0.00343235 -0.000418561 0.00735169 -5.7855 4.66521 -1.70847 
10295 647 8 19 -0.16 21.12 6.20917 3.90594 21.12 55.3915 3.90594 0 1 0 0.00551453 0.00770962 0.00447259 21.6085 18.8838 14.1292 
2025 127 3 1.008 0.03 20.3704 1.51361 5.4314 -28.812 50.696 5.4314 -1 1 0 -0.0191082 0.0244888 -0.000370631 -6.73423 -0.657945 4.8216 
2026 127 3 1.008 0.03 20.7151 3.24997 5.62429 -28.4672 52.4323 5.62429 -1 1 0 0.0127379 0.0120896 0.0023665 7.48989 -10.7277 4.71325 
2020 127 2 12.01 0.14 21.1673 2.2487 5.46269 -28.0151 51.4311 5.46269 -1 1 0 0.012248 0.00203021 0.00132626 -8.18183 9.21982 -16.4395 
10282 647 4 14.01 -0.66 22.5405 5.37568 6.3935 22.5405 54.558 6.3935 0 1 0 0.00377562 0.00264668 -0.00290676 20.5658 -14.3776 -25.3614 
2019 127 2 12.01 0.14 22.1831 1.84186 6.5088 -26.9992 51.0242 6.5088 -1 1 0 -0.00512004 -0.0037529 -0.00101797 -2.41613 36.3859 40.3854 
425 27 3 1.008 0.03 18.0589 1.91026 4.76523 18.0589 51.0926 53.9476 0 1 1 0.00200306 -0.0269712 -0.005678 -5.44471 0.439252 -6.59928 
3601 226 1 16 -0.4 19.4815 4.84163 0.723154 68.6639 4.84163 0.723154 1 0 0 -0.00666626 0.00438297 -0.00281364 -15.4183 -34.6516 -1.07782 
10292 647 6 16 -0.53 24.6941 6.20832 5.25065 24.6941 55.3907 5.25065 0 1 0 0.0034725 -0.00106372 0.000486365 -6.31573 1.53952 -4.94842 
2021 127 2 12.01 0.11 24.3742 2.50317 7.12821 -24.8081 51.6855 7.12821 -1 1 0 -0.00146713 -0.00114562 -0.00435857 43.446 -4.98285 -12.6475 
427 27 3 1.008 0.03 17.2827 5.35977 4.06948 17.2827 54.5421 53.2518 0 1 1 -0.0194956 -0.011036 -0.00480842 4.98236 4.69332 1.85273 
421 27 2 12.01 0.11 18.1452 4.8959 4.55894 18.1452 54.0782 53.7413 0 1 1 0.00627355 0.013436 -0.003103 -28.4042 9.57981 -12.8727 
428 27 3 1.008 0.03 18.9068 5.62881 4.74717 18.9068 54.8112 53.9295 0 1 1 0.0169573 0.00773139 0.00726756 6.68781 8.41177 2.24548 
3161 198 3 1.008 0.03 19.2445 8.55444 3.29464 117.609 8.55444 52.477 2 0 1 0.00801719 0.00689765 -0.0291349 10.0529 -24.1305 2.90743 
10289 647 8 19 -0.16 20.1166 5.96888 7.23827 20.1166 55.1512 7.23827 0 1 0 0.00208146 9.18914e-06 0.00318353 -31.7648 -39.0497 -20.1318 
2024 127 3 1.008 0.03 22.0411 2.48975 7.43208 -27.1412 51.6721 7.43208 -1 1 0 -0.0133739 -0.00866158 -0.0115212 -9.31939 -25.6089 -20.0128 
4632 290 3 1.008 0.03 6.97115 16.2137 7.25785 -42.2112 16.2137 -41.9245 -1 0 -1 -0.016897 0.000760589 0.0129647 -22.8815 -2.99645 -25.2749 
6976 436 3 1.008 0.03 1.2215 14.445 0.866825 50.4038 63.6273 99.2315 1 1 2 0.00978584 -7.7459e-05 -0.017271 -6.04889 -3.77889 -5.14019 
6971 436 3 1.008 0.03 2.40804 12.5534 2.90465 51.5904 61.7357 101.269 1 1 2 0.0201145 -0.00167895 -0.00546308 12.8192 4.89354 4.95546 
6961 436 1 16 -0.4 1.18627 12.1997 4.56247 50.3686 61.382 102.927 1 1 2 -0.0036542 -0.00356562 0.00165907 -14.6766 21.8481 7.79947 
6970 436 3 1.008 0.03 1.11667 14.3843 3.18459 50.299 63.5667 101.549 1 1 2 0.0102855 0.0062857 0.00588056 32.2721 13.7919 -2.66507 
8646 541 2 12.01 0.11 5.88815 9.41389 5.43424 -43.2942 -39.7685 -43.7481 -1 -1 -1 -0.000816991 0.00304032 0.00455884 -13.8098 -14.5674 -18.8156 
8641 541 1 16 -0.4 6.56441 9.44263 2.13427 -42.6179 -39.7397 -47.0481 -1 -1 -1 -0.000295712 0.00565643 0.00587329 2.08122 -15.5646 7.2725 
6972 436 3 1.008 0.03 2.58584 11.0858 3.92576 51.7682 60.2681 102.29 1 1 2 0.0284204 0.00548704 0.0114145 27.0436 -14.7617 -1.18976 
6973 436 3 1.008 0.03 1.41404 11.2191 2.67805 50.5964 60.4014 101.043 1 1 2 -0.0170898 0.0216228 0.0114813 -16.8713 -11.2777 -1.91076 
6965 436 2 12.01 0.11 1.92792 11.7532 3.44743 51.1103 60.9355 101.812 1 1 2 0.000474731 -0.00177782 0.000978242 -15.9484 12.3647 -1.0437 
8655 541 3 1.008 0.03 6.19963 9.09772 6.4319 -42.9827 -40.0846 -42.7505 -1 -1 -1 -0.0261543 -0.00740204 -0.0169153 -2.74776 -0.694287 -1.3581 
4628 290 2 12.01 0.14 5.14518 15.327 6.29502 -44.0372 15.327 -42.8873 -1 0 -1 -0.00121223 -0.00221307 0.00228332 -15.4932 -28.116 -17.3402 
4634 290 3 1.008 0.03 5.28567 14.929 5.26243 -43.8967 14.929 -43.9199 -1 0 -1 8.41165e-05 0.00142962 0.018323 6.0692 12.1767 13.7994 
4633 290 3 1.008 0.03 4.07714 15.621 6.33681 -45.1052 15.621 -42.8455 -1 0 -1 0.00889605 0.0231225 -0.0153427 12.8708 -3.20195 -0.379736 
4627 290 2 12.01 0.14 6.05064 16.4903 6.64863 -43.1317 16.4903 -42.5337 -1 0 -1 -0.00434891 0.00522753 0.00337951 10.5032 -5.5076 34.1713 
8645 541 2 12.01 0.11 6.92315 9.17767 0.806153 -42.2592 -40.0047 -48.3762 -1 -1 -1 0.0020271 -0.00245483 -0.000558335 5.08589 16.4251 19.4505 
8656 541 3 1.008 0.03 4.91906 9.88666 5.45827 -44.2633 -39.2957 -43.7241 -1 -1 -1 -0.00591975 0.00512985 -0.00819768 -9.05492 -0.0137258 8.88241 
8650 541 3 1.008 0.03 5.31833 11.2413 3.71625 -43.864 -37.9411 -45.4661 -1 -1 -1 0.0207507 -0.00196593 0.0227385 3.04216 0.072087 4.61285 
8643 541 2 12.01 0.14 7.08916 10.6854 2.53888 -42.0932 -38.497 -46.6435 -1 -1 -1 0.00558826 0.000827676 -0.00267924 -4.28718 45.459 42.1112 
8642 541 1 16 -0.4 6.79446 10.3228 4.91211 -42.3879 -38.8595 -44.2702 -1 -1 -1 -0.00193053 -0.00495252 0.00739207 30.833 9.2411 15.2507 
8644 541 2 12.01 0.14 6.40175 11.1792 3.8725 -42.7806 -38.0031 -45.3098 -1 -1 -1 -0.00527844 -0.00546472 -0.00024936 2.44296 11.5514 -25.7991 
5845 366 2 12.01 0.11 7.30011 16.4662 3.33128 7.30011 16.4662 -45.8511 0 0 -1 0.000473198 0.0026646 -0.0018804 39.1315 50.9212 16.1088 
5841 366 1 16 -0.4 8.12455 15.7352 4.22086 8.12455 15.7352 -44.9615 0 0 -1 -0.00256748 -0.0100135 0.000164311 -33.569 -52.4735 29.3856 
5851 366 3 1.008 0.03 7.89586 16.5766 2.41391 7.89586 16.5766 -46.7684 0 0 -1 0.014429 0.0138409 -0.00834648 -10.695 3.92459 1.17122 
5852 366 3 1.008 0.03 6.3813 15.9646 3.14638 6.3813 15.9646 -46.036 0 0 -1 -0.00115168 -0.00402761 -0.0149749 -14.2327 -10.4078 -6.24031 
8648 541 3 1.008 0.03 7.01767 11.4662 1.78078 -42.1647 -37.7162 -47.4016 -1 -1 -1 -0.0107818 -0.00073773 -0.00859353 -10.4562 -2.61918 -1.66459 
8653 541 3 1.008 0.03 7.96704 9.36467 0.660796 -41.2153 -39.8177 -48.5216 -1 -1 -1 0.00831942 -0.00661065 0.00411526 14.1955 -0.0633127 -6.39479 
2827 177 3 1.008 0.03 6.86841 11.9794 6.98251 -42.3139 11.9794 56.1649 -1 0 1 0.0111811 0.000981261 0.00766365 29.6544 -2.91219 14.275 
8647 541 3 1.008 0.03 8.13763 10.7585 2.789 -41.0447 -38.4238 -46.3933 -1 -1 -1 -0.0249346 0.0201491 -0.020247 9.38875 -19.1165 -6.55433 
8649 541 3 1.008 0.03 6.7686 12.2026 4.19398 -42.4137 -36.9798 -44.9884 -1 -1 -1 -0.0224989 0.00531556 0.0076709 -9.76316 -24.3523 -14.7357 
4626 290 1 16 -0.4 5.37946 14.2526 7.19775 -43.8029 14.2526 -41.9846 -1 0 -1 -0.000635355 0.00266575 -0.00183244 10.0143 23.8874 1.43236 
4630 290 2 12.01 0.11 4.70975 13.0938 6.84991 -44.4726 13.0938 -42.3324 -1 0 -1 -0.00254903 -0.00190905 -0.00173451 -44.9023 -9.43231 27.2644 
4638 290 3 1.008 0.03 3.64966 13.241 6.61716 -45.5327 13.241 -42.5652 -1 0 -1 -0.00517032 -0.0430895 -0.000557909 2.94072 6.22345 3.24134 
4639 290 3 1.008 0.03 5.08623 12.5838 6.01152 -44.0961 12.5838 -43.1708 -1 0 -1 0.0147315 -0.0183315 0.00544459 14.6144 -10.9828 -18.9599 
2829 177 3 1.008 0.03 8.22802 10.8469 7.42843 -40.9543 10.8469 56.6108 -1 0 1 0.0152223 0.0152164 -0.00558389 -11.9664 10.0329 -2.41333 
6235 390 3 1.008 0.03 9.09675 13.5507 2.76374 9.09675 -35.6316 150.311 0 -1 3 -0.0109545 0.0113857 0.0132084 24.8869 -19.6025 -10.0495 
5275 330 3 1.008 0.03 12.5529 16.2646 0.428649 61.7352 -32.9178 -48.7537 1 -1 -1 -0.00328784 -0.00236721 -0.0214261 5.50034 -7.8325 -5.55579 
2420 152 2 12.01 0.14 11.0552 11.0148 7.10973 -136.492 60.1971 105.474 -3 1 2 0.00404641 -0.0029228 -0.00537025 -8.40832 15.8061 -7.6462 
6236 390 3 1.008 0.03 10.8091 13.6331 3.06929 10.8091 -35.5492 150.616 0 -1 3 -0.000169034 -0.0248801 -0.00264134 8.90151 3.84864 7.79681 
6225 390 1 16 -0.4 10.3962 12.0233 1.86223 10.3962 -37.159 149.409 0 -1 3 0.00391418 -0.00464229 0.000809153 -13.5236 39.2314 0.116853 
6229 390 2 12.01 0.11 10.114 13.3801 2.29403 10.114 -35.8022 149.841 0 -1 3 0.00046035 -0.00462195 0.00401392 -42.9551 -17.4902 41.1713 
2425 152 3 1.008 0.03 10.6961 11.8327 6.44725 -136.851 61.015 104.812 -3 1 2 0.0133862 -0.000940538 0.000463324 8.98271 -10.2357 10.8682 
2423 152 3 1.008 0.03 9.8364 9.18005 6.53043 -137.711 58.3624 104.895 -3 1 2 0.0334102 -0.0133233 -0.00712347 13.8513 19.093 -9.08215 
6232 390 3 1.008 0.03 12.4369 12.265 1.78018 12.4369 -36.9174 149.327 0 -1 3 -0.00760035 -0.00800552 0.0151258 20.7679 -11.3521 22.3068 
5847 366 3 1.008 0.03 9.88377 16.3031 3.83199 9.88377 16.3031 -45.3504 0 0 -1 -0.00631178 -0.00735465 0.00726433 15.8804 -14.732 14.3744 
5842 366 1 16 -0.4 9.92495 16.1715 7.13971 9.92495 16.1715 -42.0426 0 0 -1 0.00494158 -0.00619964 0.000174404 -23.2117 28.9057 22.3801 
5843 366 2 12.01 0.14 9.32723 16.19 4.77185 9.32723 16.19 -44.4105 0 0 -1 -0.00482403 0.0142547 0.000680365 10.0345 79.204 -50.2384 
2417 152 1 16 -0.4 11.5356 9.63352 5.23318 -136.011 58.8159 103.598 -3 1 2 0.00501846 -0.00200713 -0.00476941 -19.2572 -12.9248 11.4774 
5850 366 3 1.008 0.03 11.0786 15.2615 5.80935 11.0786 15.2615 -43.373 0 0 -1 -0.0105172 -0.0152254 -0.0201698 -14.8845 6.79702 -6.85761 
2421 152 2 12.01 0.11 10.7188 10.2263 4.25271 -136.828 59.4086 102.617 -3 1 2 -0.00141062 0.00201365 0.00427213 7.62626 4.01359 -6.57044 
6237 390 3 1.008 0.03 10.1023 14.1743 1.6019 10.1023 -35.0081 149.149 0 -1 3 0.00748236 -0.00956332 0.013459 10.15 10.058 -26.918 
2431 152 3 1.008 0.03 13.3374 11.1084 5.75608 -134.21 60.2908 104.121 -3 1 2 -0.0102255 -0.0156525 -0.0213733 -1.85024 -11.1177 -18.1363 
9829 616 8 19 -0.16 15.6497 15.4415 0.941214 64.8321 15.4415 0.941214 1 0 0 -0.00228835 0.000581399 0.000766454 12.5087 -18.4746 -8.59694 
9828 616 7 12.01 0.35 16.4213 16.5018 1.02345 65.6036 16.5018 1.02345 1 0 0 0.0026825 0.00593357 -0.00329155 1.37914 28.326 17.6003 
2424 152 3 1.008 0.03 11.4014 8.84063 7.12237 -136.146 58.023 105.487 -3 1 2 -0.0340564 0.00635039 -0.00307509 -6.53718 21.1206 -8.96469 
2422 152 2 12.01 0.11 13.3025 11.7281 6.61096 -134.245 60.9105 104.976 -3 1 2 -0.00371218 -5.73834e-05 0.00172398 5.80062 -38.5285 14.9988 
3157 198 2 12.01 0.11 15.6354 11.2401 3.63552 114 11.2401 52.8179 2 0 1 -0.00137032 -0.000345452 0.00272057 -32.7499 -11.9415 -22.0721 
3163 198 3 1.008 0.03 15.2822 11.1538 2.59598 113.647 11.1538 51.7783 2 0 1 -0.0107227 -0.00876904 -0.0013479 1.69834 4.08044 6.61083 
2429 152 3 1.008 0.03 9.70925 9.82107 4.26046 -137.838 59.0034 102.625 -3 1 2 0.0304152 -0.029527 -0.012227 0.0237105 -5.51745 -5.75533 
2427 152 3 1.008 0.03 10.6225 11.2822 4.4804 -136.925 60.4645 102.845 -3 1 2 0.0166814 -0.00753328 -0.0153889 -0.193851 2.98362 -9.78947 
2419 152 2 12.01 0.14 10.8689 9.61681 6.51036 -136.678 58.7992 104.875 -3 1 2 -0.00109976 0.000217012 -0.000341997 21.6951 -35.22 1.92786 
5844 366 2 12.01 0.14 9.99552 15.4737 5.93823 9.99552 15.4737 -43.2441 0 0 -1 -0.000593987 4.63005e-05 -0.00707476 13.0423 -70.5633 -17.5197 
5849 366 3 1.008 0.03 9.5365 14.4488 5.89017 9.5365 14.4488 -43.2922 0 0 -1 0.0257032 0.00968987 0.0029284 7.50739 20.6744 16.5632 
2428 152 3 1.008 0.03 11.2076 10.1259 3.26807 -136.339 59.3082 101.633 -3 1 2 -0.014776 -0.00903748 0.0171095 -7.97455 -2.10587 7.80557 
3164 198 3 1.008 0.03 15.0968 10.4574 4.15483 113.461 10.4574 53.3372 2 0 1 0.0277037 0.0293546 -0.0101897 4.63638 -2.89487 6.22704 
9819 616 6 16 -0.53 12.4846 15.6637 3.4182 61.6669 15.6637 3.4182 1 0 0 -0.000258214 0.000603193 -0.00259491 15.5525 -5.19938 -14.55 
9820 616 6 16 -0.53 14.6995 14.5685 3.46377 63.8818 14.5685 3.46377 1 0 0 -0.00452344 -0.0081954 -0.00381795 6.5139 27.603 16.9724 
2430 152 3 1.008 0.03 14.3399 11.7834 6.92708 -133.207 60.9658 105.292 -3 1 2 0.00254125 0.00273622 0.000280128 -0.333517 7.8534 9.20064 
2432 152 3 1.008 0.03 12.891 12.6159 6.35399 -134.656 61.7983 104.719 -3 1 2 -0.00051991 0.00794728 -0.0192929 -6.58532 52.8458 -19.1533 
3165 198 3 1.008 0.03 15.2428 12.1596 4.05251 113.608 12.1596 53.2349 2 0 1 0.00659031 0.0145182 0.00333359 8.14372 5.33449 0.00770077 
4956 310 3 1.008 0.03 16.7634 13.1073 5.60922 65.9457 13.1073 5.60922 1 0 0 0.0168792 -0.00368898 -0.00324741 -9.89976 0.887164 1.49378 
6226 390 1 16 -0.4 12.7854 9.95793 0.762534 12.7854 -39.2244 148.31 0 -1 3 -0.000917835 0.00162489 -0.00186825 -21.2072 -28.339 -13.4794 
9823 616 8 19 -0.16 14.3824 15.6907 6.13813 63.5648 15.6907 6.13813 1 0 0 -0.0033634 0.000981341 0.00374375 6.59774 20.0071 -35.6672 
9821 616 7 12.01 0.35 13.9709 16.5397 5.15276 63.1532 16.5397 5.15276 1 0 0 0.00892624 -0.000177529 0.000375258 -7.88451 -34.7984 63.351 
9818 616 5 32.06 1.02 13.9269 15.8042 3.5099 63.1092 15.8042 3.5099 1 0 0 -0.00390581 -0.000185524 -0.00296044 -59.4533 -31.8976 -10.6399 
6227 390 2 12.01 0.14 11.613 12.0575 1.16036 11.613 -37.1248 148.707 0 -1 3 -0.000114909 0.000152285 -5.52453e-07 -0.826871 6.25089 -22.4445 
6231 390 3 1.008 0.03 11.7097 12.9686 0.571616 11.7097 -36.2137 148.119 0 -1 3 -0.00985644 0.0315109 0.0059946 -8.48355 -5.51378 -13.9749 
6335 396 3 1.008 0.03 19.6844 11.8494 0.947695 -127.863 159.396 -48.2347 -3 3 -1 -0.00849489 -0.0136439 -0.0179006 9.81826 0.474138 15.9451 
8794 550 3 1.008 0.03 23.1298 13.8367 7.42866 -75.2349 210.566 56.611 -2 4 1 0.0162458 0.0324642 0.0053062 -0.787055 -12.7084 0.427597 
10105 635 6 16 -0.53 24.5372 16.6431 6.32539 122.902 65.8254 6.32539 2 1 0 -0.0033726 -0.000512662 -0.00151456 -19.3646 -15.9045 -39.1127 
10103 635 5 32.06 1.02 24.2229 16.3503 4.91028 122.588 65.5326 4.91028 2 1 0 -0.00238188 0.00155012 0.00456328 -9.06586 -26.5316 30.5724 
4955 310 3 1.008 0.03 17.6183 13.8573 7.01127 66.8007 13.8573 7.01127 1 0 0 0.00070675 0.00127413 -0.0126722 -8.78606 -0.43832 -0.563412 
3162 198 3 1.008 0.03 19.4245 10.2223 2.73428 117.789 10.2223 51.9166 2 0 1 -0.0157 0.0203469 0.00354518 -15.8147 -32.0562 42.4705 
9831 616 8 19 -0.16 17.7173 16.1812 1.07549 66.8997 16.1812 1.07549 1 0 0 -0.00635336 -0.0009679 -0.00336248 -14.4533 -11.4019 1.68853 
3159 198 3 1.008 0.03 17.0282 9.17567 4.29064 115.393 9.17567 53.473 2 0 1 -0.000220692 -0.0162353 -0.0240489 -10.5801 -15.4584 33.2919 