ITEM: TIMESTEP
1750000
ITEM: NUMBER OF ATOMS
10479
ITEM: BOX BOUNDS pp pp pp
4.0882558190751794e-01 4.9591174418091420e+01
4.0882558190751794e-01 4.9591174418091420e+01
4.0882558190751794e-01 4.9591174418091420e+01
ITEM: ATOMS id mol type mass q x y z xu yu zu ix iy iz vx vy vz fx fy fz 
8387 525 2 12.01 0.14 4.42542 6.59878 3.106 102.79 104.963 -95.2587 2 2 -2 0.00287518 -0.00631993 -0.00760337 29.6838 -13.8925 22.503 
8385 525 1 16 -0.4 4.22148 6.15831 4.45541 102.586 104.523 -93.9093 2 2 -2 0.00223137 0.00387038 -0.000943897 -0.842403 9.66238 -9.50326 
8386 525 1 16 -0.4 6.22265 8.16047 2.63652 104.587 106.525 -95.7282 2 2 -2 -0.00519433 -0.000788518 -0.00638632 22.7042 19.7679 -48.0183 
8388 525 2 12.01 0.14 5.96399 6.86459 2.95418 104.329 105.229 -95.4105 2 2 -2 0.00532374 0.000274578 -0.00414775 -47.3419 -19.2252 18.7495 
8393 525 3 1.008 0.03 6.50968 6.68643 3.84885 104.874 105.051 -94.5159 2 2 -2 -0.00432128 0.0161687 0.00653498 7.55477 -13.1651 16.2742 
8394 525 3 1.008 0.03 6.29704 6.17571 2.22566 104.662 104.54 -96.139 2 2 -2 -0.0113771 -0.0181435 -0.0260409 16.6626 -8.19611 -16.5205 
8391 525 3 1.008 0.03 4.17925 5.75701 2.45847 102.544 104.122 -95.9062 2 2 -2 -0.0152301 -0.01428 0.00134153 -10.2992 6.33309 -3.88613 
1979 124 3 1.008 0.03 8.5048 1.38775 6.04514 106.869 50.5701 55.2275 2 1 1 0.00578495 0.00204623 -0.0117774 5.71967 3.9842 -6.17758 
1973 124 2 12.01 0.11 8.09679 2.40021 6.06133 106.461 51.5826 55.2437 2 1 1 0.00434372 -0.00213478 0.00241542 -25.7438 -5.74606 -23.7119 
1969 124 1 16 -0.4 6.67962 2.35056 5.73403 105.044 51.5329 54.9164 2 1 1 -0.00434356 0.00398209 -0.00118787 17.1478 1.65393 -21.18 
1983 124 3 1.008 0.03 3.07127 0.962766 5.57808 101.436 50.1451 54.7604 2 1 1 -0.0202674 -0.0132333 -0.0418637 -11.8059 7.66542 10.4685 
8392 525 3 1.008 0.03 3.89457 7.51161 2.88137 102.259 105.876 -95.4833 2 2 -2 -0.0116414 0.0162086 -0.00268634 -16.165 -4.80973 -7.64196 
1972 124 2 12.01 0.14 4.91114 2.35108 4.01688 103.276 51.5334 53.1992 2 1 1 0.00316468 0.00415077 -0.0015836 -34.6292 -25.6759 -3.09185 
8395 525 3 1.008 0.03 2.14144 5.47694 4.26286 100.506 103.842 -94.1018 2 2 -2 -0.0182464 -0.00534608 0.0053934 20.14 -2.02253 -6.27561 
1981 124 3 1.008 0.03 8.26735 2.78833 7.02113 106.632 51.9707 56.2035 2 1 1 -0.0102835 0.0115326 0.0231735 -3.44165 3.75775 29.5504 
1976 124 3 1.008 0.03 6.81431 1.40215 3.7657 105.179 50.5845 52.9481 2 1 1 -0.00972929 -0.0249835 0.0138199 -2.90082 -2.79212 14.5562 
8389 525 2 12.01 0.11 2.87127 6.01936 4.8875 101.236 104.384 -93.4772 2 2 -2 -0.00365354 -0.00245827 -0.000887151 -34.065 -2.36123 -0.1367 
8397 525 3 1.008 0.03 2.26783 6.9127 5.13801 100.633 105.277 -93.2267 2 2 -2 0.00127684 0.00483319 0.00845529 21.998 1.56928 -5.12296 
1975 124 3 1.008 0.03 6.93392 3.0054 3.77487 105.299 52.1877 52.9572 2 1 1 -0.00598551 -0.00246716 0.0127459 9.79116 35.5609 -10.481 
1977 124 3 1.008 0.03 4.51002 2.81336 4.88046 102.875 51.9957 54.0628 2 1 1 0.0188938 0.0379732 -0.00945995 -12.7526 15.2356 13.518 
1970 124 1 16 -0.4 4.1997 1.06544 3.88447 102.564 50.2478 53.0668 2 1 1 0.00713033 -0.0052061 0.0143251 22.5579 7.65582 22.4335 
8396 525 3 1.008 0.03 2.9241 5.43424 5.79418 101.289 103.799 -92.5705 2 2 -2 0.0265797 0.004621 0.0255002 -1.01655 -2.41153 5.74875 
1971 124 2 12.01 0.14 6.40647 2.276 4.29229 104.771 51.4583 53.4746 2 1 1 -0.00426029 -0.00153741 0.00842633 6.98272 -38.7665 18.8157 
2146 135 1 16 -0.4 8.157 1.94026 1.43721 8.157 51.1226 99.8019 0 1 2 0.00325542 -0.00346089 -0.00143068 -24.2143 -4.55993 -29.4072 
3679 230 3 1.008 0.03 2.21089 3.87793 1.53654 51.3932 3.87793 50.7189 1 0 1 0.00833322 -0.0132282 0.0028433 5.34617 20.8101 16.9842 
1978 124 3 1.008 0.03 4.59953 3.00454 3.18874 102.964 52.1869 52.3711 2 1 1 -0.0178462 -0.0103674 0.0268892 11.5917 -4.69662 0.584228 
444 28 3 1.008 0.03 1.19306 1.7456 6.63485 99.5578 100.11 154.182 2 2 3 0.00110565 0.0153813 0.000117641 7.12369 1.48869 -25.8709 
9339 584 3 1.008 0.03 5.1351 5.10211 0.490475 -44.0472 -44.0802 0.490475 -1 -1 0 -0.0129133 -0.00452357 -0.00873336 -7.24351 0.0538988 9.44669 
3680 230 3 1.008 0.03 1.76074 2.2119 1.46813 50.9431 2.2119 50.6505 1 0 1 -8.36699e-05 -0.00204913 0.0141577 -7.29563 -1.8127 -2.75161 
1974 124 2 12.01 0.11 3.88246 0.417417 5.15821 102.247 49.5998 54.3406 2 1 1 -0.000109711 -0.00139358 -0.00441969 29.2338 5.07139 -15.6668 
3314 208 1 16 -0.4 0.625828 6.77626 7.14757 98.9905 6.77626 7.14757 2 0 0 -0.00373413 -0.00569633 -0.00119207 5.61926 -11.5937 -11.8925 
1982 124 3 1.008 0.03 4.73094 0.427232 5.90406 103.096 49.6096 55.0864 2 1 1 -0.00659647 0.00223737 -0.0169959 -17.9458 -1.99447 -20.4236 
3670 230 2 12.01 0.11 1.79624 3.14665 0.905982 50.9786 3.14665 50.0883 1 0 1 0.0016131 -0.00145612 -0.0020114 28.3087 0.886564 -31.8988 
328 21 3 1.008 0.03 7.44572 6.74592 7.09818 105.81 6.74592 56.2805 2 0 1 -0.00350686 0.015161 -0.00505553 -30.3538 1.60774 13.7416 
437 28 2 12.01 0.11 0.565563 2.12229 7.39558 98.9303 100.487 154.943 2 2 3 -0.00847931 -0.00268533 0.002894 -1.81639 1.8899 36.5553 
327 21 3 1.008 0.03 5.83125 7.49639 7.31362 104.196 7.49639 56.496 2 0 1 -0.0013483 -0.0371956 -0.00502634 -9.41573 8.0578 -13.0807 
329 21 3 1.008 0.03 5.83544 4.86076 6.89548 104.2 4.86076 56.0778 2 0 1 -0.0171021 0.0220239 -0.0183398 6.11564 -2.43104 -26.8417 
3319 208 3 1.008 0.03 3.06568 7.06536 7.33354 101.43 7.06536 7.33354 2 0 0 -0.0184853 -0.0163888 0.0290956 5.37478 -7.59355 -6.38281 
1980 124 3 1.008 0.03 8.65608 3.1219 5.46687 107.021 52.3042 54.6492 2 1 1 -0.00819606 0.0289728 0.00786368 0.130161 -6.89045 -9.73956 
7584 474 3 1.008 0.03 15.8491 1.42665 1.44623 15.8491 -47.7557 -47.7361 0 -1 -1 0.0175836 0.00594438 -0.00356802 0.501065 5.80173 -4.90555 
3111 195 3 1.008 0.03 12.0435 0.989069 4.94 12.0435 50.1714 54.1223 0 1 1 -0.00931373 -0.0161851 0.00270325 -9.18135 6.13419 -13.5035 
3108 195 2 12.01 0.14 12.1846 2.53604 6.52196 12.1846 51.7184 55.7043 0 1 1 -0.00497339 0.00431225 0.00299748 0.43556 32.6747 -5.1389 
3106 195 1 16 -0.4 12.0925 3.54793 5.4677 12.0925 52.7303 54.65 0 1 1 -0.00680138 -0.00255077 0.00154699 1.2927 11.6753 32.4222 
3118 195 3 1.008 0.03 10.9713 4.9784 6.52917 10.9713 54.1608 55.7115 0 1 1 0.0275899 -0.0153389 -0.00248287 -9.87059 0.941254 3.2618 
3120 195 3 1.008 0.03 11.8445 5.52299 5.1392 11.8445 54.7053 54.3215 0 1 1 -0.0167337 0.00874149 0.00640424 -3.24989 26.1853 -24.8088 
3110 195 2 12.01 0.11 11.8917 4.91489 5.97883 11.8917 54.0972 55.1612 0 1 1 0.00634567 -0.00403172 0.00502751 3.46692 -67.619 -2.89022 
6690 419 1 16 -0.4 15.2892 3.9091 2.61425 15.2892 3.9091 -46.5681 0 0 -1 -0.00284418 -0.00340273 0.00054259 -5.55643 13.2146 -20.048 
9651 604 8 19 -0.16 10.4944 8.52469 3.1948 10.4944 57.707 3.1948 0 1 0 -0.00381242 -0.00176888 -0.00304054 -3.27187 -10.4639 -3.83226 
3119 195 3 1.008 0.03 12.6946 5.23897 6.60238 12.6946 54.4213 55.7847 0 1 1 0.0110293 -0.0283123 -0.0263702 12.6667 3.76442 8.74901 
2150 135 2 12.01 0.11 9.22113 2.64203 1.98765 9.22113 51.8244 100.352 0 1 2 -0.00707224 -0.00435899 0.00171722 2.46931 4.68733 -4.29877 
6692 419 2 12.01 0.14 15.6584 3.69344 3.93575 15.6584 3.69344 -45.2466 0 0 -1 -0.000131613 0.00012294 -0.00321196 37.2189 -0.303746 23.862 
4829 302 3 1.008 0.03 15.2044 7.55543 2.19176 162.751 -41.6269 -46.9906 3 -1 -1 -0.00236291 0.0132428 0.0237169 10.537 -14.1328 -8.46229 
4821 302 2 12.01 0.11 16.0793 6.91848 1.91448 163.626 -42.2639 -47.2679 3 -1 -1 -0.00342462 0.00318551 0.0100305 3.88693 3.79034 -40.9228 
4827 302 3 1.008 0.03 15.8611 6.16148 1.08563 163.408 -43.0209 -48.0967 3 -1 -1 -0.0315879 0.00792735 -0.00577874 1.40723 33.2569 19.3755 
6703 419 3 1.008 0.03 13.9499 4.91738 1.41857 13.9499 4.91738 -47.7638 0 0 -1 0.0222627 0.0121464 0.00489606 -6.10949 -14.5931 20.6575 
4828 302 3 1.008 0.03 16.3007 6.2778 2.72275 163.848 -42.9045 -46.4596 3 -1 -1 -0.0203732 -0.00174985 -0.0224401 7.58861 -5.96267 23.5758 
2160 135 3 1.008 0.03 10.1219 2.09761 1.71479 10.1219 51.28 100.079 0 1 2 0.0129725 -0.00302571 0.00355071 7.60556 9.95509 -4.84288 
3107 195 2 12.01 0.14 12.4541 1.16535 5.91225 12.4541 50.3477 55.0946 0 1 1 -0.00591126 -0.00715653 -0.00237275 18.7134 -33.1258 50.3158 
6698 419 3 1.008 0.03 15.7089 4.59915 4.54039 15.7089 4.59915 -44.642 0 0 -1 -0.0147762 -0.00580898 -0.00306502 4.57637 6.19699 -8.57893 
3105 195 1 16 -0.4 13.9027 1.10053 5.92279 13.9027 50.2829 55.1051 0 1 1 0.00137654 -0.0111126 -0.00314228 -24.4304 0.137528 5.19414 
6694 419 2 12.01 0.11 14.0451 4.5859 2.48813 14.0451 4.5859 -46.6942 0 0 -1 0.000680362 -0.000982247 0.0012191 13.2119 -15.3873 -30.0827 
6697 419 3 1.008 0.03 14.8456 3.21233 4.47248 14.8456 3.21233 -44.7099 0 0 -1 -0.0175213 0.0314915 -0.014605 5.163 -18.749 -2.54756 
2159 135 3 1.008 0.03 9.14933 2.51476 3.05242 9.14933 51.6971 101.417 0 1 2 0.0150933 -0.0211532 -0.0111496 -0.178579 8.09734 10.8804 
6702 419 3 1.008 0.03 14.0613 5.5058 3.04325 14.0613 5.5058 -46.1391 0 0 -1 -0.0217116 -0.00961225 0.021056 -9.81883 3.67169 14.7009 
6704 419 3 1.008 0.03 13.293 3.83448 2.78095 13.293 3.83448 -46.4014 0 0 -1 0.00504032 0.0366199 0.00599776 -5.46874 16.2677 -1.66868 
9647 604 6 16 -0.53 9.90983 7.92901 6.323 9.90983 57.1114 6.323 0 1 0 -0.000704519 0.00540789 0.00479673 12.5724 8.1381 -21.8272 
3113 195 3 1.008 0.03 11.2468 2.49982 7.06156 11.2468 51.6822 56.2439 0 1 1 0.00597017 -0.00235295 0.0126486 -6.5248 1.1625 -4.46308 
7574 474 2 12.01 0.11 14.9208 1.2005 0.921917 14.9208 -47.9818 -48.2604 0 -1 -1 0.00608449 0.00427942 0.00208126 17.8048 -21.4964 2.71565 
6699 419 3 1.008 0.03 16.4998 3.29367 6.47222 16.4998 3.29367 -42.7101 0 0 -1 -0.00209096 -0.0212051 0.0163531 6.65913 -9.1399 -3.33624 
3116 195 3 1.008 0.03 14.2866 0.817734 3.92689 14.2866 50.0001 53.1092 0 1 1 -0.00902134 0.0191384 0.00304412 -3.25575 -3.65318 -3.05873 
5129 321 3 1.008 0.03 15.386 7.22663 5.08335 15.386 56.409 5.08335 0 1 0 -0.0184074 0.00629476 -0.0160187 2.37828 8.12478 -5.05211 
5124 321 2 12.01 0.14 15.2722 8.10016 5.73466 15.2722 57.2825 5.73466 0 1 0 0.00203511 0.000102078 -0.000551478 -1.47388 -26.7673 49.3607 
5123 321 2 12.01 0.14 14.9608 7.54261 7.18089 14.9608 56.725 7.18089 0 1 0 -0.00409146 -0.00304165 0.00933045 29.1982 -1.20535 -9.22199 
2205 138 3 1.008 0.03 9.93815 6.53115 1.59791 59.1205 55.7135 -96.7668 1 1 -2 0.0015743 0.0181617 0.0174388 -15.5538 11.2726 5.15796 
5127 321 3 1.008 0.03 13.9449 7.22562 7.38524 13.9449 56.408 7.38524 0 1 0 -0.00920554 0.014553 -0.00215473 -7.21486 -1.69746 -10.7977 
7582 474 3 1.008 0.03 14.1686 1.88541 1.26204 14.1686 -47.2969 -47.9203 0 -1 -1 0.015525 0.00707945 0.0351285 -11.4511 4.67839 3.95218 
2200 138 3 1.008 0.03 12.0717 7.25987 1.02106 61.254 56.4422 -97.3436 1 1 -2 0.0353622 0.00824679 0.021902 2.57933 13.2112 -8.24152 
2158 135 3 1.008 0.03 9.18534 3.71144 1.67505 9.18534 52.8938 100.04 0 1 2 0.00821291 0.00735566 -0.0387829 7.53876 -14.6112 7.38943 
2197 138 2 12.01 0.11 9.62093 6.56469 0.554441 58.8033 55.747 -97.8103 1 1 -2 0.00431579 -0.00253299 -0.00192703 33.3705 12.977 22.2485 
2204 138 3 1.008 0.03 8.82717 5.94615 0.445884 58.0095 55.1285 -97.9188 1 1 -2 0.0087985 0.0353099 -0.00647211 -33.5508 -42.0805 -6.29234 
3114 195 3 1.008 0.03 12.9411 2.8117 7.30309 12.9411 51.9941 56.4854 0 1 1 -0.00443439 -0.0136207 -0.00489409 -11.2633 -5.46326 -16.7889 
9761 612 7 12.01 0.35 24.814 3.27109 3.98755 -24.3683 52.4534 3.98755 -1 1 0 -0.00833933 0.00429628 -0.00203923 -28.8014 13.2576 3.7531 
9769 612 8 19 -0.16 23.0211 0.745882 6.0533 -26.1613 49.9282 6.0533 -1 1 0 -0.00548058 -0.00742335 0.00295977 5.93511 -16.9186 -24.6836 
6696 419 3 1.008 0.03 17.1548 2.3689 3.04068 17.1548 2.3689 -46.1417 0 0 -1 0.00487306 -0.0191274 -0.00558291 7.14701 9.99558 -0.0673668 
6691 419 2 12.01 0.14 17.1131 3.00205 3.9344 17.1131 3.00205 -45.2479 0 0 -1 0.0101324 -0.00948206 0.00644817 -51.5376 -24.2405 13.0087 
4817 302 1 16 -0.4 17.2098 7.77284 1.60224 164.757 -41.4095 -47.5801 3 -1 -1 0.000983645 -0.00155751 0.00396769 -37.9301 12.7461 25.3265 
6695 419 3 1.008 0.03 17.9528 3.71027 3.94169 17.9528 3.71027 -45.2407 0 0 -1 0.0177012 -0.0196938 -0.0124151 -5.6917 -2.94217 -1.27673 
6701 419 3 1.008 0.03 18.2626 3.02198 6.10344 18.2626 3.02198 -43.0789 0 0 -1 0.0120661 -0.0440526 0.0107856 2.10246 9.40887 12.4562 
6689 419 1 16 -0.4 17.1604 1.98387 4.9708 17.1604 1.98387 -44.2116 0 0 -1 -0.00518989 -0.0036379 0.00910447 -11.3305 12.4421 -55.0082 
6693 419 2 12.01 0.11 17.2806 2.56706 6.17222 17.2806 2.56706 -43.0101 0 0 -1 0.00112172 -1.40382e-05 -0.00619882 13.6721 20.6432 22.8106 
9763 612 8 19 -0.16 23.8158 2.52716 3.57226 -25.3665 51.7095 3.57226 -1 1 0 -0.00409239 -0.00598849 -0.00323883 -7.13448 -9.40471 -2.6644 
4819 302 2 12.01 0.14 18.3576 7.10805 1.26279 165.905 -42.0743 -47.9196 3 -1 -1 -0.00759149 0.00254124 -0.000916504 -32.5277 -30.0142 -58.8782 
4823 302 3 1.008 0.03 18.6769 6.36193 1.93533 166.224 -42.8204 -47.247 3 -1 -1 -0.0145783 -0.000130124 -0.0215311 9.69408 -11.3485 21.6431 
2596 163 2 12.01 0.14 20.8718 1.32281 3.27561 20.8718 1.32281 150.823 0 0 3 0.00167676 0.0080351 0.00670637 12.337 17.5983 43.9386 
2594 163 1 16 -0.4 19.9805 2.38207 3.07746 19.9805 2.38207 150.625 0 0 3 0.00119538 0.00459536 0.00276955 -15.4783 4.77391 -20.8182 
2598 163 2 12.01 0.11 20.544 3.66309 2.97874 20.544 3.66309 150.526 0 0 3 -0.00729281 -0.00564894 0.000372596 23.0133 3.40022 -3.09818 
2607 163 3 1.008 0.03 21.5941 3.67779 2.59436 21.5941 3.67779 150.141 0 0 3 0.0144198 0.000933755 0.00155357 -17.4051 -2.41375 6.06664 
2608 163 3 1.008 0.03 19.9467 4.36415 2.37184 19.9467 4.36415 149.919 0 0 3 0.0164812 -0.00978634 -0.00249872 1.36142 -7.70719 6.75573 
4820 302 2 12.01 0.14 19.3919 8.04104 0.775193 166.939 -41.1413 -48.4072 3 -1 -1 -0.00256978 0.00364476 0.00184854 16.3911 69.1733 49.7192 
168 11 3 1.008 0.03 23.0634 7.29123 5.81137 121.428 56.4736 104.176 2 1 2 0.0143919 0.00877617 0.00617605 11.7005 5.63568 -5.66002 
171 11 3 1.008 0.03 20.8036 7.00626 3.94322 119.168 56.1886 102.308 2 1 2 0.00409513 0.0144995 0.00399672 17.9892 -19.8255 -18.6528 
163 11 2 12.01 0.14 22.6179 8.19836 5.38929 120.983 57.3807 103.754 2 1 2 -0.00657116 0.000917971 -0.00168358 -49.6561 4.43687 51.2978 
172 11 3 1.008 0.03 21.3393 6.04826 5.50686 119.704 55.2306 103.872 2 1 2 -0.0182968 0.0168424 -0.00444542 -7.25774 -9.87138 -16.1558 
2606 163 3 1.008 0.03 20.5356 3.97004 4.01617 20.5356 3.97004 151.563 0 0 3 -0.00285461 0.0196103 0.0215274 5.43032 12.2198 2.49853 
165 11 2 12.01 0.11 20.7692 6.83315 4.99591 119.134 56.0155 103.361 2 1 2 -0.00221989 0.0118346 -0.00518023 -49.9953 21.0025 11.7558 
2605 163 3 1.008 0.03 19.0132 1.29044 1.10901 19.0132 1.29044 148.656 0 0 3 0.00890689 -0.0174233 -0.000739306 -5.19803 -43.9487 21.1189 
173 11 3 1.008 0.03 19.6512 6.74376 5.10044 118.016 55.9261 103.465 2 1 2 -0.00137643 -0.0117934 -0.0269788 26.3681 -5.75646 11.3502 
161 11 1 16 -0.4 21.1814 8.06139 5.51299 119.546 57.2437 103.878 2 1 2 0.00330697 -0.00164066 -0.00161807 21.9549 7.13016 1.38841 
2601 163 3 1.008 0.03 21.4045 1.49972 4.24696 21.4045 1.49972 151.794 0 0 3 -0.00832603 0.00968347 0.000665915 -4.55624 -0.823247 -21.3267 
162 11 1 16 -0.4 23.3288 7.34231 3.36656 121.694 56.5247 101.731 2 1 2 -0.00146223 0.002026 0.00359605 8.19527 29.275 -20.3213 
2602 163 3 1.008 0.03 21.5606 1.1963 2.4784 21.5606 1.1963 150.025 0 0 3 0.00103842 -0.00178111 -0.000200958 15.9523 1.32465 -13.4318 
6700 419 3 1.008 0.03 17.3647 1.75395 6.84718 17.3647 1.75395 -42.3352 0 0 -1 -0.00556815 0.0109618 -0.0199789 -3.12541 -9.85877 20.6143 
164 11 2 12.01 0.14 23.0496 8.58984 4.01479 121.414 57.7722 102.379 2 1 2 0.0070453 0.00113525 -0.00215616 -43.6994 -4.98121 -38.8766 
174 11 3 1.008 0.03 24.7321 8.02148 1.93008 123.097 57.2038 100.295 2 1 2 -0.0192683 -0.0186858 -0.00777994 -4.40158 -4.26957 -0.0501106 
175 11 3 1.008 0.03 23.6817 6.55467 1.54428 122.046 55.737 99.909 2 1 2 -0.00256646 -0.0156797 0.00167091 12.3481 21.4041 6.85595 
166 11 2 12.01 0.11 23.7307 7.5777 2.00326 122.095 56.76 100.368 2 1 2 -0.00374656 -0.00206697 -0.00630573 -9.59301 -33.3971 -1.45349 
9762 612 8 19 -0.16 24.8328 4.2926 3.20064 -24.3496 53.475 3.20064 -1 1 0 -0.00364132 0.00899168 -0.00379811 1.51595 23.8321 -20.1415 
9758 612 5 32.06 1.02 24.5848 3.78231 5.71492 -24.5975 52.9647 5.71492 -1 1 0 0.000648425 0.00420781 -0.0068572 98.6963 -30.6203 7.79411 
176 11 3 1.008 0.03 23.0335 8.1447 1.37387 121.398 57.327 99.7386 2 1 2 -0.0184457 0.00297284 -0.0102223 0.505246 3.72193 10.0528 
9759 612 6 16 -0.53 23.2121 4.04294 5.7569 -25.9703 53.2253 5.7569 -1 1 0 -0.00343034 0.00349884 -0.00506974 -56.1532 9.86881 14.0567 
9768 612 7 12.01 0.35 23.1355 1.04878 7.30432 -26.0469 50.2311 7.30432 -1 1 0 -0.000618382 -0.00225212 0.00243637 8.8229 -23.2833 28.0748 
4826 302 3 1.008 0.03 20.27 7.55409 0.516532 167.817 -41.6283 -48.6658 3 -1 -1 0.000674922 0.0300644 0.0134411 29.5528 -18.7233 -14.1825 
8390 525 2 12.01 0.11 5.96942 9.10189 3.60067 104.334 107.467 -94.764 2 2 -2 0.00317017 -0.0005517 -0.000791167 -36.6104 44.4254 -13.3832 
8400 525 3 1.008 0.03 6.41614 8.84533 4.51746 104.781 107.21 -93.8472 2 2 -2 -0.00391845 0.0230484 0.0333196 17.9595 0.605162 21.6818 
8399 525 3 1.008 0.03 4.86908 9.03788 3.79616 103.234 107.403 -94.5685 2 2 -2 -0.00617943 0.0239727 0.00092208 22.3342 19.8525 0.0910958 
8398 525 3 1.008 0.03 6.28271 10.139 3.19845 104.647 108.504 -95.1662 2 2 -2 0.0286285 0.00389787 0.000932413 -12.8693 -37.692 21.2926 
9871 619 6 16 -0.53 1.02469 15.8409 6.57887 1.02469 65.0232 6.57887 0 1 0 0.000623755 0.00370522 0.00669561 9.97007 -20.1714 12.235 
2880 180 3 1.008 0.03 5.22707 12.4861 0.975645 5.22707 61.6685 -48.2067 0 1 -1 -0.00538187 0.00127733 -0.00422727 8.99584 -20.1206 -7.13655 
6498 407 1 16 -0.4 0.759302 9.60352 1.22396 0.759302 58.7859 99.5887 0 1 2 -0.000726493 -0.0103643 -0.00031994 -7.8826 16.9482 18.85 
6510 407 3 1.008 0.03 2.18538 10.7639 1.964 2.18538 59.9463 100.329 0 1 2 0.0158355 0.0331539 -0.0143699 32.5666 10.1667 2.47658 
6511 407 3 1.008 0.03 0.625616 11.5152 2.08534 0.625616 60.6976 100.45 0 1 2 -0.0133026 0.00309698 -0.000844488 6.325 -7.10002 4.44606 
3791 237 3 1.008 0.03 5.80253 11.7741 5.11063 5.80253 60.9564 5.11063 0 1 0 0.0193629 0.00129234 0.00666371 17.6103 17.4851 15.2385 
9870 619 5 32.06 1.02 0.831523 15.6149 5.17273 0.831523 64.7973 5.17273 0 1 0 -0.0026255 0.00435335 0.00191701 37.6263 72.605 -34.4324 
9862 619 4 14.01 -0.66 2.07723 15.9736 4.23744 2.07723 65.156 4.23744 0 1 0 -0.00374465 0.00254457 0.00104578 8.12606 -30.0907 19.3593 
9864 619 6 16 -0.53 4.42403 15.0037 4.19654 4.42403 64.1861 4.19654 0 1 0 -0.00133041 -0.000918862 0.00282692 34.2384 23.9761 1.3492 
9863 619 5 32.06 1.02 3.11369 14.9085 3.63237 3.11369 64.0909 3.63237 0 1 0 0.00149399 -0.00120949 -0.00190452 -43.7493 -35.5739 -25.2085 
9866 619 7 12.01 0.35 3.26985 15.5649 1.87986 3.26985 64.7472 1.87986 0 1 0 0.00313892 0.00407599 -0.00402462 7.11661 -19.7314 52.4207 
9867 619 8 19 -0.16 2.10741 15.4266 1.27281 2.10741 64.6089 1.27281 0 1 0 -0.000524097 0.00440639 0.00463709 0.723295 9.77848 -10.7893 
3783 237 3 1.008 0.03 7.17697 13.6878 2.20647 7.17697 62.8702 2.20647 0 1 0 0.00880592 0.0286556 -0.0026842 16.3025 28.5468 11.1892 
3777 237 1 16 -0.4 7.22918 15.551 3.30061 7.22918 64.7334 3.30061 0 1 0 -0.0059057 0.00979504 0.00776533 4.0513 -25.3705 -13.6467 
10466 677 9 24.305 2 6.22417 15.5974 4.90255 6.22417 64.7797 4.90255 0 1 0 0.00494968 -0.00101579 0.00272343 8.55639 -16.5585 30.0904 
3779 237 2 12.01 0.14 7.83759 14.282 2.90855 7.83759 63.4644 2.90855 0 1 0 -0.00444622 -0.000677965 -0.00297289 -17.6101 -19.7587 10.7954 
3778 237 1 16 -0.4 6.71959 13.6887 4.96796 6.71959 62.871 4.96796 0 1 0 -0.00541534 0.000808167 -0.00270682 17.8857 -20.5363 2.13861 
9868 619 8 19 -0.16 4.20252 14.9121 1.18192 4.20252 64.0945 1.18192 0 1 0 0.00465567 -0.00149793 0.00188262 -5.72859 8.51651 2.10228 
3782 237 2 12.01 0.11 6.3737 12.5112 5.75478 6.3737 61.6935 5.75478 0 1 0 0.00484947 0.00486178 0.00290865 -14.033 -7.17278 -20.0005 
9865 619 6 16 -0.53 2.70781 13.5071 3.45597 2.70781 62.6894 3.45597 0 1 0 -0.00242313 0.000566721 0.000223631 -2.21261 41.1904 -1.75756 
3780 237 2 12.01 0.14 7.88432 13.344 4.16171 7.88432 62.5264 4.16171 0 1 0 -0.002796 -0.00319623 0.00192809 -25.9459 33.188 -20.2639 
3790 237 3 1.008 0.03 5.68241 12.7691 6.56799 5.68241 61.9514 6.56799 0 1 0 -0.00457277 -0.0020394 -0.0151412 6.89315 -2.31923 -3.85751 
3649 229 1 16 -0.4 5.78135 15.4291 6.83467 5.78135 64.6114 6.83467 0 1 0 0.0025907 -0.00308904 -0.00509995 5.21944 -13.7109 19.0684 
3785 237 3 1.008 0.03 7.82604 12.3432 3.7492 7.82604 61.5256 3.7492 0 1 0 -0.0230935 0.0182428 -0.00691428 4.38828 -9.66313 5.96679 
3792 237 3 1.008 0.03 7.25976 11.9953 6.174 7.25976 61.1777 6.174 0 1 0 -0.0168569 -0.0320791 -0.0137844 -11.1121 7.13331 -1.41252 
3787 237 3 1.008 0.03 6.47526 15.8384 1.27936 6.47526 65.0208 1.27936 0 1 0 5.62529e-05 -0.0123966 0.0132775 2.83156 10.5941 29.4429 
3781 237 2 12.01 0.11 7.00564 16.3475 2.14186 7.00564 65.5298 2.14186 0 1 0 -0.00300717 9.01096e-06 0.00261426 7.38775 -7.19591 -33.4868 
6502 407 2 12.01 0.11 1.18782 10.573 2.20424 1.18782 59.7553 100.569 0 1 2 -0.00792266 0.00291226 -0.00583363 -35.3198 -3.22244 4.59094 
6512 407 3 1.008 0.03 1.08972 10.3406 3.28606 1.08972 59.523 101.651 0 1 2 -0.00973845 0.00571344 0.0127035 2.4239 -10.2949 -16.3687 
3789 237 3 1.008 0.03 7.94965 16.631 1.64447 7.94965 65.8134 1.64447 0 1 0 -0.00526046 0.00569684 -0.0240272 -4.60775 1.49157 12.8976 
3653 229 2 12.01 0.11 4.53624 15.1011 7.43403 4.53624 64.2834 7.43403 0 1 0 0.00614299 -0.000733849 0.0060931 -21.5064 -17.8379 -14.6088 
3650 229 1 16 -0.4 7.87331 16.1193 5.92028 7.87331 65.3016 5.92028 0 1 0 0.0111893 0.00284583 -0.00582528 31.6928 2.99363 -29.6701 
3660 229 3 1.008 0.03 3.67529 15.1223 6.71054 3.67529 64.3046 6.71054 0 1 0 -0.0293121 -0.00715373 -0.0107654 21.6853 -7.5941 13.8616 
2879 180 3 1.008 0.03 5.4788 10.7531 0.4379 5.4788 59.9355 -48.7444 0 1 -1 -0.00257315 -0.0158691 0.0044931 -12.4106 -1.92114 -1.3153 
3313 208 1 16 -0.4 2.40329 8.97494 7.00501 100.768 8.97494 7.00501 2 0 0 0.00505331 0.00296674 -0.000796942 -32.248 -3.29136 0.102519 
2866 180 1 16 -0.4 7.13526 11.7534 0.867055 7.13526 60.9358 -48.3153 0 1 -1 -0.00413278 -0.000158568 -0.00287796 17.7327 17.9005 16.7239 
2874 180 3 1.008 0.03 7.83869 9.87042 0.648647 7.83869 59.0528 -48.5337 0 1 -1 0.00983656 -0.0125117 -0.00392712 -14.048 -25.0539 10.8985 
3317 208 2 12.01 0.11 3.53035 9.66211 6.63403 101.895 9.66211 6.63403 2 0 0 -0.002446 -0.00185156 -0.00464117 27.6662 15.3475 15.1223 
3324 208 3 1.008 0.03 3.34549 10.2181 5.70566 101.71 10.2181 5.70566 2 0 0 -0.00974359 0.00217059 0.00217804 3.97946 -1.04951 4.80973 
3323 208 3 1.008 0.03 4.4 9.02239 6.55496 102.765 9.02239 6.55496 2 0 0 -0.0227626 -0.0146329 0.0230586 0.861606 -4.88653 -10.3461 
3652 229 2 12.01 0.14 8.17304 15.5637 7.18686 8.17304 64.7461 7.18686 0 1 0 0.000737538 0.00210967 -0.00562551 -15.1831 4.33266 30.3944 
2828 177 3 1.008 0.03 1.60097 11.8313 7.19839 -47.5814 61.0136 56.3807 -1 1 1 0.00674121 -0.0162224 0.0151311 -30.989 14.7309 29.6312 
9650 604 8 19 -0.16 12.193 8.65451 4.4954 12.193 57.8369 4.4954 0 1 0 -0.000311407 0.00366341 -0.000191944 4.30529 -0.560825 -17.8299 
3658 229 3 1.008 0.03 8.78316 14.6717 7.21163 8.78316 63.854 7.21163 0 1 0 0.0012338 0.0242543 -0.0163155 -1.29627 -6.31355 -13.1363 
4947 310 2 12.01 0.14 13.1199 12.1954 0.430697 62.3022 12.1954 0.430697 1 0 0 0.00114722 0.000200065 0.00114443 37.7218 -3.23575 47.0981 
4952 310 3 1.008 0.03 12.3824 12.8145 0.93824 61.5648 12.8145 0.93824 1 0 0 0.0401622 0.0127158 0.00750314 -7.04254 7.49074 -15.5932 
3784 237 3 1.008 0.03 8.84285 14.391 2.46701 8.84285 63.5733 2.46701 0 1 0 -0.0120702 0.00272999 -0.00649079 -8.47318 0.391333 0.963761 
5130 321 3 1.008 0.03 14.3751 8.64161 5.51495 14.3751 57.824 5.51495 0 1 0 0.00608443 -0.0073497 8.30598e-05 -4.86808 12.1495 -15.537 
3786 237 3 1.008 0.03 8.7948 13.4879 4.71956 8.7948 62.6703 4.71956 0 1 0 -0.00020237 -0.00983526 -0.00650517 7.90603 -1.78414 4.94711 
9649 604 8 19 -0.16 11.3243 10.3864 3.64467 11.3243 59.5688 3.64467 0 1 0 0.000384995 0.000645501 -0.000155179 2.12075 16.0868 -1.24762 
9648 604 7 12.01 0.35 11.042 9.22223 4.1639 11.042 58.4046 4.1639 0 1 0 0.00236492 0.000672659 0.00543033 -22.3665 -30.6657 54.7332 
9643 604 8 19 -0.16 13.1954 11.7104 5.60848 13.1954 60.8928 5.60848 0 1 0 -0.00384592 0.00397877 0.000632057 11.8005 7.10485 -3.92772 
9638 604 5 32.06 1.02 10.9995 11.5687 7.06087 10.9995 60.751 7.06087 0 1 0 0.00246594 -0.00669801 0.000126517 -17.7362 64.7525 -44.6724 
9646 604 6 16 -0.53 8.72496 9.90597 5.38217 8.72496 59.0883 5.38217 0 1 0 -0.00126858 0.0036008 -0.00222858 44.1942 -12.0473 5.70478 
4945 310 1 16 -0.4 14.3394 12.3509 1.2518 63.5218 12.3509 1.2518 1 0 0 -0.00105643 -0.00546306 -0.00528698 -30.5178 -5.24953 7.57191 
4955 310 3 1.008 0.03 13.2845 12.3913 2.99984 62.4669 12.3913 2.99984 1 0 0 -0.00708676 0.0206046 -0.006164 0.990997 -11.7423 10.5245 
4949 310 2 12.01 0.11 14.1243 11.8151 2.5965 63.3066 11.8151 2.5965 1 0 0 -0.0071084 0.00120651 -0.00799609 47.7063 22.6413 -6.0792 
4956 310 3 1.008 0.03 14.0286 10.7324 2.61588 63.2109 10.7324 2.61588 1 0 0 0.00868207 -0.0130746 -0.00904367 -14.681 -1.65751 -3.31143 
9825 616 5 32.06 1.02 12.7266 16.0226 1.89787 61.909 16.0226 1.89787 1 0 0 0.00033403 0.00177554 0.00147461 17.5163 55.802 -19.7953 
4957 310 3 1.008 0.03 15.0692 11.9613 3.23388 64.2515 11.9613 3.23388 1 0 0 -0.00954925 -0.00923062 0.0290973 -36.0563 2.74357 -20.4746 
9826 616 6 16 -0.53 13.8445 15.277 1.35298 63.0268 15.277 1.35298 1 0 0 0.00751313 0.00548199 -0.00150983 11.8728 -12.128 15.9938 
9827 616 6 16 -0.53 11.5735 15.3037 2.2523 60.7558 15.3037 2.2523 1 0 0 0.00468374 0.00136027 0.00239794 -38.8544 -26.5192 1.29484 
10149 638 6 16 -0.53 16.6275 14.0908 2.53316 16.6275 14.0908 51.7155 0 0 1 -0.00370029 -0.00367016 0.000709269 -27.4694 2.93987 -18.1335 
9645 604 5 32.06 1.02 10.002 9.2716 5.77416 10.002 58.4539 5.77416 0 1 0 -0.00115783 -0.00136466 -0.00176305 -43.1946 28.2465 -36.3732 
9830 616 8 19 -0.16 13.7579 15.6798 4.2242 62.9403 15.6798 4.2242 1 0 0 0.00282958 0.00250386 -0.00250803 17.2383 -20.3751 24.3385 
10153 638 8 19 -0.16 16.4821 15.894 4.77596 16.4821 15.894 53.9583 0 0 1 -0.000826716 0.00699429 0.00505127 -20.4691 -1.52344 3.04098 
9637 604 4 14.01 -0.66 11.0147 10.1559 6.54717 11.0147 59.3383 6.54717 0 1 0 -0.00507195 0.0105141 -0.00215128 10.1664 -42.6073 1.51074 
9642 604 8 19 -0.16 11.4279 12.3548 4.53666 11.4279 61.5372 4.53666 0 1 0 0.00339447 -0.00153986 -0.00382771 25.4669 0.911306 41.9002 
9641 604 7 12.01 0.35 12.0696 12.3799 5.75718 12.0696 61.5623 5.75718 0 1 0 -0.00629757 0.00090429 0.00426635 -62.4397 -14.0512 -43.9705 
2871 180 3 1.008 0.03 9.96795 10.2399 0.893408 9.96795 59.4222 -48.2889 0 1 -1 0.0245029 0.0204959 -0.00760186 8.91792 -12.3624 -10.8105 
3662 229 3 1.008 0.03 9.9922 16.2515 5.35381 9.9922 65.4339 5.35381 0 1 0 0.0114678 0.00293018 -0.00850206 -12.6721 -3.43375 -0.346246 
9644 604 8 19 -0.16 12.3273 13.6632 5.97004 12.3273 62.8456 5.97004 0 1 0 0.00430223 0.00296523 0.000241589 6.87578 -5.37917 6.10036 
10454 665 9 24.305 2 15.3152 14.0419 0.778797 64.4975 14.0419 0.778797 1 0 0 0.00185531 0.00607228 -0.00504799 -2.58809 -8.14222 -2.56153 
2867 180 2 12.01 0.14 9.47875 11.1603 0.637953 9.47875 60.3426 -48.5444 0 1 -1 0.00159313 -0.000896507 -0.000256788 -15.3615 16.0408 14.0264 
2872 180 3 1.008 0.03 9.52462 11.5785 1.65753 9.52462 60.7608 -47.5248 0 1 -1 0.0134519 0.00929209 0.00578782 -1.52801 11.3602 -13.6802 
5134 321 3 1.008 0.03 16.0699 10.0091 4.28967 16.0699 59.1915 4.28967 0 1 0 0.00724278 0.00368249 0.0240986 19.2138 -0.663309 -0.628044 
5122 321 1 16 -0.4 16.4339 8.93143 5.89721 16.4339 58.1138 5.89721 0 1 0 0.0010829 0.00313473 -0.00792665 9.38352 4.41859 -8.29801 
9828 616 7 12.01 0.35 13.3124 16.6545 3.51494 62.4948 16.6545 3.51494 1 0 0 0.00751817 0.00323762 0.00379198 12.2946 11.2068 -53.1245 
8103 507 3 1.008 0.03 14.5789 16.4092 6.68097 63.7613 16.4092 105.046 1 0 2 -0.0155247 0.00233556 -0.00759675 5.78462 18.9785 4.13527 
9639 604 6 16 -0.53 9.76218 12.3242 7.01828 9.76218 61.5065 7.01828 0 1 0 -0.00137604 -0.00605969 0.00453786 4.75184 -8.21772 -3.60783 
7806 488 3 1.008 0.03 16.5184 11.0725 1.34332 65.7008 11.0725 1.34332 1 0 0 -0.00263373 -0.0441676 -0.0031456 1.10103 5.78865 -0.240678 
4951 310 3 1.008 0.03 12.7394 11.2016 0.457068 61.9218 11.2016 0.457068 1 0 0 -0.0100899 0.00297787 -0.010006 -4.3548 -18.3049 2.10903 
7797 488 2 12.01 0.11 16.7486 16.7225 0.44126 65.9309 16.7225 0.44126 1 0 0 0.0045293 0.00455227 -0.00484293 -3.57317 -23.689 -15.2013 
8105 507 3 1.008 0.03 14.252 14.1647 7.38781 63.4343 14.1647 105.753 1 0 2 -0.00948628 0.00427023 0.000162885 3.61539 13.3226 11.5147 
7808 488 3 1.008 0.03 18.0531 11.4663 0.657739 67.2354 11.4663 0.657739 1 0 0 -0.00183088 -0.00957981 -0.034085 10.3616 -5.04598 2.55676 
7805 488 3 1.008 0.03 17.4623 16.5999 1.22627 66.6447 16.5999 1.22627 1 0 0 -0.0098754 0.0130803 0.00999816 10.851 14.1288 8.70879 
167 11 3 1.008 0.03 22.7558 8.9936 6.14051 121.12 58.1759 104.505 2 1 2 -0.00219981 0.000552858 -0.00309034 11.796 -3.60432 -12.3628 
170 11 3 1.008 0.03 23.8257 9.27978 4.14165 122.19 58.4621 102.506 2 1 2 0.0133526 0.00360609 -0.0155518 31.7157 8.33675 -5.51442 
2248 141 3 1.008 0.03 22.8934 13.5999 6.43165 22.8934 13.5999 55.614 0 0 1 0.0145558 0.0114603 -0.0141797 8.71247 -6.91539 -0.903752 
7505 470 1 16 -0.4 24.9049 11.4751 5.28791 74.0872 -37.7072 -43.8944 1 -1 -1 -0.00479894 -0.00282916 0.00424005 -9.70401 -4.98381 16.9996 
7798 488 2 12.01 0.11 16.9977 11.476 0.447558 66.1801 11.476 0.447558 1 0 0 -0.00274346 -0.0119774 -0.00352856 5.13271 -17.2964 21.416 
2254 141 3 1.008 0.03 22.0829 11.2614 6.15728 22.0829 11.2614 55.3396 0 0 1 -0.00954449 -0.00595206 0.00901687 -5.50174 7.1108 13.021 
1851 116 3 1.008 0.03 21.1899 10.602 0.779299 21.1899 -38.5803 -97.5854 0 -1 -2 -0.00106441 -0.00956054 0.0181583 4.66054 5.82183 -13.6591 