ITEM: TIMESTEP
3150000
ITEM: NUMBER OF ATOMS
10479
ITEM: BOX BOUNDS pp pp pp
4.0882558190751794e-01 4.9591174418091420e+01
4.0882558190751794e-01 4.9591174418091420e+01
4.0882558190751794e-01 4.9591174418091420e+01
ITEM: ATOMS id mol type mass q x y z xu yu zu ix iy iz vx vy vz fx fy fz 
10126 636 6 16 -0.53 2.82099 7.23133 2.42808 2.82099 7.23133 51.6104 0 0 1 0.00333481 0.00167962 -0.00721376 2.83443 -7.27738 -2.8965 
10125 636 5 32.06 1.02 1.5639 6.53647 2.50867 1.5639 6.53647 51.691 0 0 1 -0.000896763 -0.000507962 -0.00266442 -16.9834 13.0007 -0.0253215 
10117 636 4 14.01 -0.66 1.1251 5.64477 1.27941 1.1251 5.64477 50.4618 0 0 1 0.00868032 0.00206441 -0.00107799 2.9919 -13.0571 18.6129 
7927 496 3 1.008 0.03 3.8383 4.89103 3.20074 3.8383 4.89103 52.3831 0 0 1 -0.029061 -0.017986 0.00528331 13.1045 -5.83486 -2.589 
7923 496 2 12.01 0.14 3.756 4.06832 3.91163 3.756 4.06832 53.094 0 0 1 -0.0096347 -0.00419684 -0.00465534 -20.599 -5.01191 40.3629 
10461 672 9 24.305 2 1.18235 4.37799 5.03347 1.18235 4.37799 54.2158 0 0 1 -0.00767063 -0.00130449 -2.46196e-05 -13.7439 4.91498 0.0525462 
7929 496 3 1.008 0.03 3.44956 2.60619 2.47742 3.44956 2.60619 51.6598 0 0 1 -0.0232786 -0.00549394 0.0245993 -4.30929 -4.38078 -19.1968 
7924 496 2 12.01 0.14 2.95738 2.87423 3.38947 2.95738 2.87423 52.5718 0 0 1 -0.0011758 0.00642546 0.0051066 11.6792 9.41891 10.7862 
7926 496 2 12.01 0.11 0.950816 2.24115 2.48945 0.950816 2.24115 51.6718 0 0 1 -0.00273148 -0.0036952 -0.00733637 -16.0033 26.2369 -32.6546 
7921 496 1 16 -0.4 3.14304 4.5683 5.12898 3.14304 4.5683 54.3113 0 0 1 -0.000317184 -0.00187409 -0.00817566 -10.2995 -7.93048 -0.0737365 
7922 496 1 16 -0.4 1.59198 3.21476 3.3428 1.59198 3.21476 52.5251 0 0 1 0.00253494 0.00186476 0.00335989 -21.8122 -1.15759 5.01053 
7928 496 3 1.008 0.03 4.65408 3.58631 4.23923 4.65408 3.58631 53.4216 0 0 1 0.00870969 0.0314726 -0.0210852 24.8942 8.49418 -7.07972 
7931 496 3 1.008 0.03 4.66209 5.98187 5.48412 4.66209 5.98187 54.6665 0 0 1 -0.0306765 -0.0126183 -0.0211191 -1.50927 1.61244 -5.27965 
7925 496 2 12.01 0.11 4.04027 5.27656 6.03012 4.04027 5.27656 55.2125 0 0 1 -0.0010541 -0.00800809 -0.0038262 21.0717 -10.5901 -16.0831 
7930 496 3 1.008 0.03 3.04487 1.98946 4.00852 3.04487 1.98946 53.1909 0 0 1 0.0198527 -0.0160173 0.02887 8.24932 2.09598 -4.02018 
7934 496 3 1.008 0.03 1.37949 2.48907 1.49308 1.37949 2.48907 50.6754 0 0 1 -0.00729045 0.001252 0.018851 -1.7615 -20.8716 11.0002 
7935 496 3 1.008 0.03 1.0722 1.21758 2.80866 1.0722 1.21758 51.991 0 0 1 0.00918056 0.00774762 -0.00330231 9.84396 -6.92818 0.291346 
965 61 2 12.01 0.11 2.28828 1.94192 6.5919 2.28828 1.94192 55.7742 0 0 1 -0.00519364 -0.00203071 0.00832933 -44.1152 12.8009 -45.2982 
10127 636 6 16 -0.53 1.18278 6.02869 3.8131 1.18278 6.02869 52.9954 0 0 1 -0.00651886 -0.000251051 -0.00300303 7.86856 -33.0721 0.969834 
971 61 3 1.008 0.03 2.46886 1.27862 5.75426 2.46886 1.27862 54.9366 0 0 1 -0.035849 -0.00744981 0.0205674 10.4492 -21.9542 20.4978 
1104 69 3 1.008 0.03 6.39593 8.10437 4.84826 55.5783 8.10437 -93.5164 1 0 -2 -0.00621974 0.018686 0.0202017 1.02777 -24.0917 10.0673 
4285 268 3 1.008 0.03 6.07905 0.94571 6.14626 153.626 -48.2366 -43.0361 3 -1 -1 0.0170009 0.00778738 0.00895877 1.00003 -1.83191 6.23189 
2242 141 1 16 -0.4 0.445802 5.29002 6.64736 0.445802 5.29002 55.8297 0 0 1 -0.00360396 -0.00289698 0.00529009 10.0703 -12.5124 3.63703 
2680 168 3 1.008 0.03 7.93851 4.57823 1.93401 -90.4262 4.57823 51.1164 -2 0 1 0.000198274 -0.0172636 -0.012664 -28.3534 -15.1898 0.109334 
2249 141 3 1.008 0.03 1.39783 7.01678 6.23294 1.39783 7.01678 55.4153 0 0 1 0.015313 0.0121449 -0.000294708 14.862 4.80476 -13.5964 
7933 496 3 1.008 0.03 4.78037 4.6748 6.61185 4.78037 4.6748 55.7942 0 0 1 -0.018766 0.00446323 -0.0194915 -17.8819 0.524558 -11.181 
2244 141 2 12.01 0.14 0.696429 6.65923 6.93622 0.696429 6.65923 56.1186 0 0 1 0.00163029 0.00133518 -0.00296282 17.9418 3.52778 44.4866 
4278 268 2 12.01 0.11 6.83235 1.80934 1.22794 154.379 -47.373 -47.9544 3 -1 -1 -0.00512222 -0.0031446 0.004746 -16.0597 -29.0772 -36.235 
7932 496 3 1.008 0.03 3.49309 5.88813 6.7142 3.49309 5.88813 55.8965 0 0 1 -0.00559751 0.00264324 0.024246 -9.58694 0.445266 10.5592 
961 61 1 16 -0.4 1.20586 2.68403 5.97542 1.20586 2.68403 55.1578 0 0 1 -0.00352618 0.00303277 0.00145134 -15.7987 -7.42931 9.67585 
2064 129 3 1.008 0.03 8.37089 5.85713 5.53555 57.5532 55.0395 54.7179 1 1 1 0.0210981 -0.0287052 -0.00591866 -15.2339 -0.297436 -2.47111 
4279 268 3 1.008 0.03 7.21914 0.861784 3.93802 154.766 -48.3206 -45.2443 3 -1 -1 -0.0047492 -0.0403588 0.0193329 12.8043 -10.1118 1.84816 
2684 168 3 1.008 0.03 7.40541 7.11003 1.06645 -90.9593 7.11003 50.2488 -2 0 1 0.000819018 0.00228498 -0.0107445 -1.40158 2.94717 11.4894 
7632 477 3 1.008 0.03 8.05176 8.36707 7.10052 8.05176 8.36707 56.2829 0 0 1 -0.0279667 -0.00231284 0.00627488 -2.18568 -2.58679 -5.29033 
4274 268 1 16 -0.4 6.00351 0.685834 1.56443 153.551 -48.4965 -47.6179 3 -1 -1 0.00155332 0.0114058 0.000909122 -2.93261 13.1892 1.77594 
4286 268 3 1.008 0.03 6.15585 2.63371 1.22152 153.703 -46.5486 -47.9608 3 -1 -1 -0.00325851 0.00877988 0.0088235 -3.31247 18.2648 9.37389 
972 61 3 1.008 0.03 3.15183 2.5053 6.78301 3.15183 2.5053 55.9654 0 0 1 0.0187887 0.0133984 -0.00349404 21.8666 17.0935 3.50033 
4287 268 3 1.008 0.03 7.64086 1.91519 1.93957 155.188 -47.2672 -47.2428 3 -1 -1 0.0354854 -0.000524277 0.00640667 8.03902 9.36197 -1.92464 
9617 602 6 16 -0.53 3.8816 8.348 7.0569 53.064 57.5303 56.2392 1 1 1 -0.00054434 -0.00235618 -0.00339332 24.3863 -36.4222 -13.0395 
7630 477 3 1.008 0.03 6.5018 7.4607 7.29812 6.5018 7.4607 56.4805 0 0 1 0.0276858 0.00537515 0.00933053 4.10235 14.8985 -1.51199 
2679 168 3 1.008 0.03 8.75972 5.87013 2.68861 -89.605 5.87013 51.871 -2 0 1 0.00990834 0.00997118 0.0147814 9.18155 -19.0838 -31.3092 
2675 168 2 12.01 0.14 8.83067 5.11261 1.8409 -89.534 5.11261 51.0233 -2 0 1 -0.00447338 0.00554141 -0.00679926 -13.1735 39.2914 13.9845 
2681 168 3 1.008 0.03 9.87977 3.55194 2.94545 -88.4849 3.55194 52.1278 -2 0 1 0.0188416 0.00590611 -0.0125695 -10.6673 13.9582 -22.1169 
3161 198 3 1.008 0.03 10.0089 1.57588 3.73956 108.374 1.57588 52.9219 2 0 1 -0.00143408 0.0173182 -0.0163395 7.72695 -23.9777 6.34274 
2063 129 3 1.008 0.03 9.80854 5.69151 4.47298 58.9909 54.8739 53.6553 1 1 1 -0.0193249 -0.00913975 0.0225289 -6.37245 0.670701 16.2038 
2062 129 3 1.008 0.03 9.40989 7.32273 5.05845 58.5922 56.5051 54.2408 1 1 1 0.0145046 -0.0155222 0.00683131 -8.10308 -40.9371 14.5951 
2054 129 2 12.01 0.11 9.35901 6.21715 5.34058 58.5414 55.3995 54.5229 1 1 1 -0.00178573 -0.00585716 -0.000950089 29.5392 33.2771 -18.337 
475 30 3 1.008 0.03 11.0348 7.76453 2.02549 60.2171 56.9469 51.2078 1 1 1 0.00890108 -0.00336413 -0.0102286 -4.51312 0.181283 11.2301 
418 27 1 16 -0.4 15.6484 0.425818 3.40769 15.6484 49.6082 52.59 0 1 1 0.000146574 0.00572116 0.00508137 -11.2497 -17.4773 -6.75927 
2061 129 3 1.008 0.03 13.6505 2.77405 6.24533 62.8329 51.9564 55.4277 1 1 1 -0.00436057 0.0404596 -0.0253925 -8.65046 -6.16167 -4.31554 
2053 129 2 12.01 0.11 13.4552 3.62783 6.88004 62.6375 52.8102 56.0624 1 1 1 0.00105586 0.00044975 -0.00119854 14.7007 17.238 -13.1788 
2049 129 1 16 -0.4 12.7257 4.66841 6.18954 61.9081 53.8508 55.3719 1 1 1 -4.91088e-07 -0.000217122 0.000379994 -7.7567 -5.44647 36.684 
474 30 3 1.008 0.03 14.8112 8.02519 2.77716 63.9936 57.2075 51.9595 1 1 1 -0.00519267 0.00740904 -0.00151884 0.216949 7.39599 -3.77741 
476 30 3 1.008 0.03 12.4528 7.37863 2.92649 61.6352 56.561 52.1088 1 1 1 0.0140928 -0.00913166 -0.0159056 14.724 -18.5299 11.4182 
2686 168 3 1.008 0.03 12.1799 4.40592 3.73548 -86.1848 4.40592 52.9178 -2 0 1 -0.0148462 -0.0204535 -0.0111016 6.59632 -6.57057 -14.8402 
469 30 2 12.01 0.11 11.8644 8.18693 2.59971 61.0468 57.3693 51.7821 1 1 1 -0.00518782 0.00352092 0.00269522 -0.376934 28.0347 -25.0761 
9104 569 3 1.008 0.03 15.0491 7.26747 6.59732 -34.1332 56.4498 -42.585 -1 1 -1 -0.00307085 0.00898761 0.0133341 9.49479 0.449377 -16.499 
2687 168 3 1.008 0.03 12.2871 3.15163 2.39996 -86.0776 3.15163 51.5823 -2 0 1 -0.0336277 -0.00715079 -0.0221673 3.12772 3.70108 3.87732 
2678 168 2 12.01 0.11 12.2773 4.22185 2.64271 -86.0874 4.22185 51.8251 -2 0 1 0.00232557 -0.0035072 -0.00239527 32.6503 41.1709 -33.2705 
9094 569 2 12.01 0.11 15.2461 8.30003 6.28115 -33.9362 57.4824 -42.9012 -1 1 -1 0.00614611 0.00386196 -0.000256957 -36.3889 23.7502 -2.0433 
2688 168 3 1.008 0.03 13.2494 4.74707 2.17685 -85.1153 4.74707 51.3592 -2 0 1 0.0269982 0.0183705 0.0246215 -55.5648 -34.6859 37.3112 
8464 529 3 1.008 0.03 14.6447 5.2252 4.57703 63.8271 54.4075 102.942 1 1 2 -0.00627148 -0.0132485 0.00509117 30.7571 9.15478 -1.87163 
2674 168 1 16 -0.4 11.1641 4.86618 1.9911 -87.2006 4.86618 51.1735 -2 0 1 0.00736842 0.00268921 -0.00518071 -23.8775 -28.5338 1.48842 
2676 168 2 12.01 0.14 9.89353 4.09395 1.95934 -88.4712 4.09395 51.1417 -2 0 1 -0.00153672 -0.00485403 0.000336855 80.5012 -1.74982 37.0507 
466 30 1 16 -0.4 15.333 8.44476 0.823121 64.5154 57.6271 50.0055 1 1 1 -0.00106959 -0.00347691 -0.00470611 19.3392 0.548771 16.1257 
8454 529 2 12.01 0.11 15.7452 4.96917 4.56874 64.9275 54.1515 102.933 1 1 2 -0.00528343 0.000866663 -0.00241001 -29.3091 -17.9282 -7.51675 
3153 198 1 16 -0.4 9.50629 0.579697 6.02518 107.871 0.579697 55.2075 2 0 1 -0.000272732 -0.00416184 -0.0027946 22.4852 5.00699 -36.2193 
470 30 2 12.01 0.11 16.5523 7.70424 0.971641 65.7347 56.8866 50.154 1 1 1 0.00254531 -0.0032322 0.00103715 31.2074 12.9024 15.0919 
2682 168 3 1.008 0.03 9.88388 3.33716 1.16579 -88.4808 3.33716 50.3481 -2 0 1 0.0356119 -0.0164263 -0.0154125 0.0120594 4.64402 0.938604 
3156 198 2 12.01 0.14 10.5926 0.628017 3.88296 108.957 0.628017 53.0653 2 0 1 -0.00216301 0.00347769 0.000778321 18.7656 51.811 -37.3873 
2050 129 1 16 -0.4 10.1497 6.0173 6.49151 59.332 55.1996 55.6739 1 1 1 0.000337973 0.00655795 -0.000492416 12.4826 16.5785 -19.4546 
8463 529 3 1.008 0.03 16.3855 5.57498 5.19054 65.5679 54.7573 103.555 1 1 2 0.00590535 0.00203126 -0.00911657 -5.42319 11.473 9.33566 
2673 168 1 16 -0.4 8.88094 5.69719 0.545271 -89.4838 5.69719 49.7276 -2 0 1 0.0063754 -0.00239595 0.00258002 -29.4078 14.3907 -0.547177 
8462 529 3 1.008 0.03 15.7006 3.97319 5.05281 64.883 53.1555 103.418 1 1 2 0.0104796 0.0228434 -0.010519 8.94557 7.59873 -12.1173 
8450 529 1 16 -0.4 16.2914 4.97067 3.2412 65.4737 54.153 101.606 1 1 2 -0.0083535 0.00348953 -0.0045798 -28.6013 -3.66533 11.8674 
480 30 3 1.008 0.03 16.4682 6.82818 1.62139 65.6506 56.0105 50.8037 1 1 1 0.0224983 -0.0246168 0.0146326 -8.57847 4.11196 -3.34274 
2056 129 3 1.008 0.03 13.2268 6.28775 7.33966 62.4091 55.4701 56.522 1 1 1 0.015401 -0.0175722 -0.0138969 9.98101 4.87456 9.11861 
3162 198 3 1.008 0.03 11.5046 0.858951 3.27923 109.869 0.858951 52.4616 2 0 1 -0.00994341 0.00489906 0.018884 -6.08095 -6.60265 22.1569 
3159 198 3 1.008 0.03 11.6084 0.943754 5.83657 109.973 0.943754 55.0189 2 0 1 -0.00441738 0.0184079 -0.0070347 -3.71995 7.55203 -4.9662 
2051 129 2 12.01 0.14 12.3401 5.74561 7.09098 61.5224 54.928 56.2733 1 1 1 0.0016871 0.00134117 0.00351186 -9.1157 -7.66355 -17.5325 
2057 129 3 1.008 0.03 11.373 7.68884 6.7296 60.5553 56.8712 55.912 1 1 1 -0.0334774 0.00283698 -0.0046379 0.441561 -7.80915 -1.75961 
2052 129 2 12.01 0.14 11.4206 6.67825 6.29131 60.603 55.8606 55.4737 1 1 1 -0.000816676 -0.0017463 -0.00292285 -4.15715 -8.00781 -12.4521 
2058 129 3 1.008 0.03 11.7481 6.80384 5.19926 60.9305 55.9862 54.3816 1 1 1 0.0161074 0.00262166 0.00485515 -9.13598 -8.39082 36.0947 
2059 129 3 1.008 0.03 14.4684 3.98165 7.04275 63.6507 53.164 56.2251 1 1 1 0.0202253 -0.00469187 0.0112772 0.407277 5.32664 5.54177 
3157 198 2 12.01 0.11 9.63727 0.498666 7.3812 108.002 0.498666 56.5635 2 0 1 -0.000241441 -0.0024347 0.00198925 31.5614 22.9204 68.8187 
1019 64 3 1.008 0.03 19.0541 1.17307 0.460238 68.2364 -97.1916 98.8249 1 -2 2 0.0175898 -0.00994505 0.00208305 -0.320158 15.9801 16.0642 
3884 243 3 1.008 0.03 23.5259 3.67788 1.68246 121.891 -45.5045 100.047 2 -1 2 -0.00526588 0.0119555 -0.0188659 0.789885 -35.952 37.4085 
8451 529 2 12.01 0.14 18.0524 3.91842 1.89175 67.2347 53.1008 100.256 1 1 2 0.005313 -0.00478298 -0.000686306 -38.0573 15.9143 23.9003 
3885 243 3 1.008 0.03 22.7146 4.51859 0.527617 121.079 -44.6638 98.8923 2 -1 2 -0.0305926 0.014194 -0.00280596 20.0024 6.46597 8.01572 
10132 637 4 14.01 -0.66 23.6444 0.843153 5.65441 -25.538 50.0255 5.65441 -1 1 0 0.00265777 -0.00879643 0.00304296 -11.5741 -2.26577 -2.92335 
417 27 1 16 -0.4 16.8986 1.61994 5.93014 16.8986 50.8023 55.1125 0 1 1 0.00385744 0.00125268 -0.000834257 -3.69068 6.6844 6.91803 
423 27 3 1.008 0.03 18.0061 1.48828 4.24895 18.0061 50.6706 53.4313 0 1 1 -0.0151167 -0.0114492 -0.0306826 0.0130226 3.71763 -23.6378 
10145 637 8 19 -0.16 22.112 1.96464 3.44328 -27.0704 51.147 3.44328 -1 1 0 -1.27776e-05 -0.00976504 -0.000381027 -8.32551 15.0211 -0.289645 
429 27 3 1.008 0.03 18.2196 3.20937 6.03749 18.2196 52.3917 55.2198 0 1 1 0.0209133 0.0265646 0.00257835 -1.4635 19.9658 -7.6983 
8457 529 3 1.008 0.03 17.6637 3.59503 3.9598 66.846 52.7774 102.324 1 1 2 -0.00178577 0.0129835 4.30926e-05 2.90732 27.0193 -9.9035 
8452 529 2 12.01 0.14 17.584 4.47566 3.26586 66.7664 53.658 101.631 1 1 2 -0.00545152 0.00167859 -0.000732175 38.1212 -30.8009 -20.5557 
8458 529 3 1.008 0.03 18.3284 5.26652 3.42083 67.5107 54.4489 101.786 1 1 2 0.015426 -0.0205962 0.0107588 -7.13882 -2.40007 18.4925 
3875 243 2 12.01 0.14 24.373 6.60605 0.703321 122.738 -42.5763 99.068 2 -1 2 0.00499698 0.0036007 0.00136919 34.6624 46.365 -16.0886 
1223 77 3 1.008 0.03 24.4718 8.23924 5.17391 24.4718 57.4216 5.17391 0 1 0 -0.0060036 0.00265008 0.00141457 -2.76435 -3.66066 -8.1249 
3873 243 1 16 -0.4 24.1341 5.58253 1.6136 122.499 -43.5998 99.9783 2 -1 2 0.000997895 0.0013464 -0.000573885 11.8366 10.7441 28.13 
3877 243 2 12.01 0.11 23.7212 4.41597 1.01243 122.086 -44.7664 99.3771 2 -1 2 -0.000985258 0.0039196 0.00133031 -38.1739 6.42008 -62.5948 
10143 637 7 12.01 0.35 21.8434 2.49995 4.63438 -27.3389 51.6823 4.63438 -1 1 0 -0.000946506 0.000263592 -0.000839908 21.1203 -33.0515 13.6196 
10146 637 8 19 -0.16 20.5947 2.91268 4.67297 -28.5877 52.095 4.67297 -1 1 0 -0.00277174 -0.00304893 -0.000187889 -6.91128 7.68292 -8.40383 
10144 637 8 19 -0.16 22.6426 3.52552 4.81614 -26.5398 52.7079 4.81614 -1 1 0 -0.00097628 0.00472288 -0.000467722 0.00523325 12.7204 -6.74686 
3876 243 2 12.01 0.14 24.9096 7.92514 1.42525 123.274 -41.2572 99.7899 2 -1 2 -0.00373079 2.29869e-05 -0.00756062 -2.85389 -1.6674 -2.86281 
1229 77 3 1.008 0.03 24.0957 5.205 4.93548 24.0957 54.3874 4.93548 0 1 0 0.0200946 -0.00966996 0.00744348 9.35035 -13.3434 0.929638 
1219 77 2 12.01 0.14 24.1367 7.51414 5.91293 24.1367 56.6965 5.91293 0 1 0 0.00208676 0.00155562 -0.000795418 -6.04827 -0.798627 9.44232 
1224 77 3 1.008 0.03 23.1512 7.05242 5.68104 23.1512 56.2348 5.68104 0 1 0 -0.0229524 -0.00399321 0.00779069 9.18945 14.8453 -1.35822 
10141 637 6 16 -0.53 21.8823 1.89697 7.21659 -27.3001 51.0793 7.21659 -1 1 0 -0.0030068 0.00316422 0.00240713 8.71033 -17.3188 -40.6391 
10140 637 5 32.06 1.02 22.1612 1.23576 5.92266 -27.0211 50.4181 5.92266 -1 1 0 0.00133291 -0.00612382 0.000295031 -18.1971 16.15 43.9147 
8455 529 3 1.008 0.03 17.4039 3.09411 1.60489 66.5863 52.2765 99.9696 1 1 2 -0.0475405 0.0132438 0.0172539 -1.62437 -0.149076 -6.09792 
8456 529 3 1.008 0.03 19.0136 3.51556 2.07733 68.1959 52.6979 100.442 1 1 2 0.0170474 0.0123033 0.0284128 22.5862 -7.6428 -3.99002 
8449 529 1 16 -0.4 18.0561 4.99223 0.96234 67.2385 54.1746 99.327 1 1 2 -0.00547082 -0.00149191 0.00201531 10.8788 -5.71044 -12.0081 
421 27 2 12.01 0.11 17.7552 2.47489 6.64911 17.7552 51.6572 55.8315 0 1 1 0.00412497 0.00521391 -0.00691591 -19.9858 -12.8163 23.5737 
10135 637 6 16 -0.53 24.8198 2.84998 6.77641 -24.3625 52.0323 6.77641 -1 1 0 0.00638367 -0.0071586 -0.00112649 1.09106 -33.4188 -14.9219 
1220 77 2 12.01 0.14 24.1239 8.19269 7.26733 24.1239 57.375 7.26733 0 1 0 -0.00244335 -0.0132735 -0.00501965 -18.393 34.3029 6.18591 
479 30 3 1.008 0.03 17.3242 8.34805 1.50203 66.5065 57.5304 50.6844 1 1 1 -0.0113311 0.0065026 -0.00961141 -18.4938 -15.8051 -18.9037 
3881 243 3 1.008 0.03 24.5134 8.11558 2.4469 122.878 -41.0668 100.812 2 -1 2 -0.00106586 0.00837522 0.00356145 -8.04624 -4.30786 -18.2766 
10133 637 5 32.06 1.02 24.9236 1.49138 6.22124 -24.2588 50.6737 6.22124 -1 1 0 0.00208913 0.000441028 0.00149681 49.047 11.3782 -11.31 
5646 353 3 1.008 0.03 21.5705 4.59108 6.74705 -27.6118 53.7734 105.112 -1 1 2 -0.0325238 -0.00305621 -0.00936808 -6.31403 5.90275 2.75002 
419 27 2 12.01 0.14 17.5168 0.852178 4.9448 17.5168 50.0345 54.1271 0 1 1 0.00306687 -0.00410011 0.00920271 -49.4023 -21.9735 -5.98289 
5648 353 3 1.008 0.03 19.9205 4.73173 7.19884 -29.2619 53.9141 105.564 -1 1 2 -0.0255115 -0.00999459 -0.0270724 -14.6624 -1.58615 1.63994 
5634 353 1 16 -0.4 21.0885 6.47765 7.3156 -28.0938 55.66 105.68 -1 1 2 0.00209088 -0.00118812 -0.0018751 1.95157 2.20809 6.3036 
428 27 3 1.008 0.03 18.5975 1.93052 7.052 18.5975 51.1129 56.2344 0 1 1 0.0146785 -0.0120075 -0.000151181 0.458554 -6.26007 9.73643 
10129 636 8 19 -0.16 0.732359 8.65053 1.3532 0.732359 8.65053 50.5355 0 0 1 -0.00309579 0.000512921 -0.0047331 -16.0851 2.873 15.2744 
2406 151 2 12.01 0.11 4.8648 10.0512 0.473315 152.412 157.598 98.838 3 3 2 -0.00959042 -0.00263057 0.0017449 34.0552 -10.8264 28.8277 
7308 457 3 1.008 0.03 7.5406 14.482 2.7139 7.5406 112.847 2.7139 0 2 0 0.00279594 0.015374 0.00821375 -24.267 12.5453 21.6335 
1094 69 2 12.01 0.11 6.86369 8.97773 4.4833 56.046 8.97773 -93.8814 1 0 -2 0.00340752 0.00279302 0.00473399 4.80077 68.8095 17.3407 
1103 69 3 1.008 0.03 6.317 9.24345 3.61723 55.4994 9.24345 -94.7475 1 0 -2 -0.0187577 -0.00883209 -0.0203572 -9.4644 0.303287 -20.8942 
2414 151 3 1.008 0.03 4.41679 9.23487 1.02487 151.964 156.782 99.3896 3 3 2 -0.0120676 0.015434 0.0124361 -6.17014 -3.16559 2.45291 
7309 457 3 1.008 0.03 7.17085 13.2945 1.39169 7.17085 111.659 1.39169 0 2 0 0.0085486 0.00780762 -0.00429034 13.5957 10.2195 14.0546 
2409 151 3 1.008 0.03 4.26443 10.4637 3.05207 151.811 158.011 101.417 3 3 2 -0.00347882 -0.0027526 0.000299013 -4.82572 -2.92531 -5.61799 
7307 457 3 1.008 0.03 8.27736 12.8983 2.71559 8.27736 111.263 2.71559 0 2 0 -0.00348595 -0.00849908 0.00811846 5.15317 -12.428 17.3836 
9620 602 8 19 -0.16 2.77539 10.8459 5.38865 51.9577 60.0282 54.571 1 1 1 0.00570248 0.00351389 0.00123848 13.0012 32.7225 -19.9013 
4419 277 2 12.01 0.14 2.64709 16.0695 5.34927 101.012 16.0695 103.714 2 0 2 0.00476796 -0.000581967 -0.00310558 28.3136 43.8895 23.4622 
2407 151 3 1.008 0.03 3.86878 12.8343 3.86018 151.416 160.381 102.225 3 3 2 0.00807181 0.038813 0.00888609 11.8149 -1.02809 -12.8127 
2403 151 2 12.01 0.14 4.73855 12.5305 3.23079 152.286 160.078 101.595 3 3 2 -0.00141089 -0.00103126 -0.00350917 6.71057 -23.3462 28.5757 
2408 151 3 1.008 0.03 5.14254 13.3448 2.66866 152.69 160.892 101.033 3 3 2 0.000709573 0.0247527 0.000387559 -4.16099 7.45377 -11.475 
4418 277 1 16 -0.4 3.17195 15.5746 2.97557 101.537 15.5746 101.34 2 0 2 0.00109839 0.00487656 0.00380976 40.422 -14.9252 -19.5323 
4420 277 2 12.01 0.14 2.40596 16.317 3.85517 100.771 16.317 102.22 2 0 2 0.00957667 0.00218385 -0.0049464 -44.7934 35.1073 12.9844 
4425 277 3 1.008 0.03 1.3553 16.0151 3.64913 99.72 16.0151 102.014 2 0 2 -0.0259614 0.00472679 0.0131861 13.9165 6.81696 1.29338 
9621 602 8 19 -0.16 1.91371 8.98648 5.45438 51.0961 58.1688 54.6367 1 1 1 -0.00534814 0.00815526 -0.00162412 -20.8828 -5.5921 -13.0451 
1102 69 3 1.008 0.03 6.61671 9.87534 5.15625 55.7991 9.87534 -93.2084 1 0 -2 -0.00414857 -0.00477836 -0.000546132 9.19733 -38.2445 -13.9353 
2401 151 1 16 -0.4 5.80147 12.0719 4.0831 153.349 159.619 102.448 3 3 2 -0.00152989 -0.00328709 -0.00719572 0.455318 -16.7715 -23.5875 
9618 602 7 12.01 0.35 2.16114 10.0455 6.17705 51.3435 59.2278 55.3594 1 1 1 0.0115354 -0.00216465 0.00361475 -16.0571 -18.1561 79.4876 
2411 151 3 1.008 0.03 5.11086 12.7944 5.81453 152.658 160.341 104.179 3 3 2 -0.0466624 0.0103106 -0.0155789 18.7212 6.97547 -7.35997 
2405 151 2 12.01 0.11 6.07332 12.7802 5.24218 153.62 160.327 103.607 3 3 2 -0.00080283 0.00738525 0.00243644 -19.6044 44.8472 27.063 
2413 151 3 1.008 0.03 6.46091 13.8373 5.07365 154.008 161.384 103.438 3 3 2 0.0257588 -0.000965101 0.0111458 -13.5627 -30.6556 1.86031 
2412 151 3 1.008 0.03 6.77517 12.2832 5.90637 154.322 159.83 104.271 3 3 2 0.0149226 0.0112392 -0.0213708 3.26842 -4.06554 -3.95176 
4422 277 2 12.01 0.11 4.59823 15.7988 3.12834 102.963 15.7988 101.493 2 0 2 -0.00199691 -0.00807792 0.00220906 15.3879 58.2664 8.186 
4432 277 3 1.008 0.03 5.26253 15.6203 2.27232 103.627 15.6203 100.637 2 0 2 0.0328782 -0.0029881 0.0089771 -16.6369 -8.44634 -3.98383 
9619 602 8 19 -0.16 0.974926 10.6098 6.60391 50.1573 59.7921 55.7863 1 1 1 -0.000104393 -0.000614933 0.00646157 42.0769 -16.9339 -23.5579 
4424 277 3 1.008 0.03 1.80438 16.434 6.04023 100.169 16.434 104.405 2 0 2 -0.00842006 -0.0122771 0.0275051 28.7771 -11.7189 -29.032 
4494 281 3 1.008 0.03 8.28607 16.4074 4.55883 106.651 -32.7749 152.106 2 -1 3 0.0220821 0.00924223 0.00101436 11.7945 -12.9402 -4.23207 
4431 277 3 1.008 0.03 5.01743 15.1367 3.92787 103.382 15.1367 102.293 2 0 2 -0.0315875 0.0149356 0.0245949 -9.03867 23.6499 -7.17863 
4417 277 1 16 -0.4 3.95179 16.7722 5.64471 102.316 16.7722 104.009 2 0 2 -0.00905176 0.00508196 0.000813505 -61.8755 -44.0652 -9.30742 
2410 151 3 1.008 0.03 3.4138 11.5097 1.86327 150.961 159.057 100.228 3 3 2 0.0134012 -0.0202586 0.00351207 8.61901 -4.00848 3.76235 
4423 277 3 1.008 0.03 2.6683 15.012 5.49684 101.033 15.012 103.862 2 0 2 0.00924562 0.00856327 0.014293 8.6494 -14.616 5.09186 
2402 151 1 16 -0.4 5.36635 11.0381 1.44371 152.913 158.585 99.8084 3 3 2 0.00689542 0.00177155 0.00143885 -2.38227 -21.0835 -50.7798 
2404 151 2 12.01 0.14 4.37963 11.3026 2.3614 151.927 158.85 100.726 3 3 2 0.00837198 -0.00190494 0.00164707 -29.1569 25.4247 27.8781 
1090 69 1 16 -0.4 8.25475 8.96966 4.13884 57.4371 8.96966 -94.2259 1 0 -2 -0.00486683 -0.0109322 0.00251502 -10.8893 9.09046 0.109054 
1097 69 3 1.008 0.03 8.04807 10.9601 3.45833 57.2304 10.9601 -94.9064 1 0 -2 0.0018284 0.0216744 -0.0110288 -11.2993 -4.0936 -1.12257 
2431 152 3 1.008 0.03 8.45671 10.5432 0.662425 -139.09 59.7255 99.0271 -3 1 2 -0.0100918 -0.0173312 0.000596787 -0.655828 -4.04018 12.032 
4638 290 3 1.008 0.03 8.23668 15.5077 6.57008 -40.9457 15.5077 -42.6123 -1 0 -1 0.00404458 -0.00971181 -0.016018 1.76983 4.38294 -8.10339 
7301 457 2 12.01 0.11 7.91262 13.6957 2.13352 7.91262 112.06 2.13352 0 2 0 -0.00901158 0.00101819 -0.000204984 13.845 8.29975 -58.9625 
4639 290 3 1.008 0.03 8.5966 13.9034 7.24895 -40.5857 13.9034 -41.9334 -1 0 -1 -0.0225825 -0.0196788 0.031088 -1.65277 7.51174 -4.9877 
4630 290 2 12.01 0.11 8.62137 14.988 7.42984 -40.561 14.988 -41.7525 -1 0 -1 0.00575603 0.00194971 0.00330593 3.84227 -19.7724 17.5514 
465 30 1 16 -0.4 12.5757 8.94862 1.6079 61.7581 58.131 50.7903 1 1 1 0.00154901 0.00270944 -0.0017614 -11.03 -5.58316 3.66148 
468 30 2 12.01 0.14 14.9798 8.90892 2.13815 64.1622 58.0913 51.3205 1 1 1 -0.00407311 -4.05094e-05 -0.000521671 -74.2332 -50.1313 -27.2237 
9090 569 1 16 -0.4 16.5724 8.64232 5.98708 -32.6099 57.8247 -43.1953 -1 1 -1 -0.000286921 0.0052043 -0.000585346 5.40396 20.9228 -3.28702 
477 30 3 1.008 0.03 11.527 8.79381 3.45596 60.7093 57.9762 52.6383 1 1 1 -0.00732714 -0.0067293 0.0150894 -0.38766 -4.75729 -7.32241 
9103 569 3 1.008 0.03 14.6584 8.63688 5.34759 -34.524 57.8192 -43.8348 -1 1 -1 -0.0217933 0.0163826 0.0352746 9.02033 -21.0861 38.641 
7297 457 1 16 -0.4 9.04312 14.353 1.54026 9.04312 112.718 1.54026 0 2 0 0.000924947 -0.00448029 -0.000428148 5.53718 -10.4431 6.85279 
1101 69 3 1.008 0.03 11.52 12.2503 6.6139 60.7024 12.2503 -91.7508 1 0 -2 -0.010536 0.0159543 -0.0157487 -3.0257 -18.1804 -7.47891 
1092 69 2 12.01 0.14 8.74509 10.3071 3.95884 57.9274 10.3071 -94.4059 1 0 -2 0.00496875 0.00266752 0.00355835 42.2316 4.89802 -2.85622 
1098 69 3 1.008 0.03 9.66845 10.3781 3.30228 58.8508 10.3781 -95.0624 1 0 -2 -0.00696891 -0.0340819 0.0197108 -29.4112 -13.4475 10.2219 
467 30 2 12.01 0.14 13.674 9.72288 2.054 62.8563 58.9052 51.2363 1 1 1 0.0116194 -0.00158263 -0.00144691 -5.52985 -3.25858 25.5644 
1095 69 3 1.008 0.03 8.77282 10.6214 6.14516 57.9552 10.6214 -92.2195 1 0 -2 0.0110058 -0.0162337 -0.0105366 -22.0901 -10.9985 26.3956 
471 30 3 1.008 0.03 13.7728 10.5378 1.40011 62.9552 59.7202 50.5825 1 1 1 0.0198807 -0.00459191 -0.019629 7.78273 15.4209 -24.2356 
9102 569 3 1.008 0.03 14.9048 8.84868 7.20224 -34.2775 58.031 -41.9801 -1 1 -1 0.00957167 -0.000982085 0.00503282 4.6338 -3.9459 -23.9084 
5269 330 2 12.01 0.11 11.6213 13.6912 3.25198 60.8036 -35.4911 -45.9304 1 -1 -1 -0.00653057 0.00349997 -0.00725292 -60.95 -26.731 -9.72864 
473 30 3 1.008 0.03 15.6173 9.46741 2.64828 64.7996 58.6498 51.8306 1 1 1 0.0062626 -0.0185357 -0.00308687 56.4489 38.0572 23.1596 
472 30 3 1.008 0.03 13.4453 10.2859 2.97398 62.6277 59.4683 52.1563 1 1 1 -0.0122988 0.00921853 -0.0172826 0.65822 -14.076 -0.262324 
1096 69 3 1.008 0.03 9.08064 12.0039 5.13425 58.263 12.0039 -93.2304 1 0 -2 -2.97477e-05 -0.014088 -0.013334 0.819805 13.6998 9.04793 
5271 330 3 1.008 0.03 13.9396 14.7303 2.24897 63.1219 -34.4521 -46.9334 1 -1 -1 -0.007968 -0.0346784 0.00113607 5.44526 -5.19377 -5.0328 
1093 69 2 12.01 0.11 11.3313 11.1486 6.59634 60.5136 11.1486 -91.7684 1 0 -2 0.00266711 0.00403382 3.8209e-05 -7.77092 15.447 -61.6549 
1089 69 1 16 -0.4 10.6181 10.7027 5.35031 59.8005 10.7027 -93.0144 1 0 -2 -0.00311173 -0.00120252 -0.00523447 40.5072 6.04574 46.6032 
5267 330 2 12.01 0.14 13.4811 14.9719 3.19488 62.6635 -34.2104 -45.9875 1 -1 -1 -0.00685591 -0.0029542 0.0013675 -38.9247 -38.2035 23.1455 
4490 281 3 1.008 0.03 10.8541 16.6396 4.76882 109.219 -32.5428 152.316 2 -1 3 -0.0191759 0.00299218 0.0145815 7.87869 -8.43621 8.20458 
1091 69 2 12.01 0.14 9.24152 10.9531 5.28027 58.4239 10.9531 -93.0844 1 0 -2 0.0063595 -0.000778876 0.000280335 9.36197 2.20911 -41.1759 
9098 569 3 1.008 0.03 15.8665 10.5412 5.20571 -33.3158 59.7236 -43.9766 -1 1 -1 -0.00997539 -0.017292 0.0109456 -3.35368 -4.27261 2.93621 
5275 330 3 1.008 0.03 11.6218 13.6379 2.15597 60.8042 -35.5444 -47.0264 1 -1 -1 -0.00855399 -0.00729217 4.43077e-05 1.48781 7.96564 3.19391 
9097 569 3 1.008 0.03 16.5984 10.4533 6.8166 -32.5839 59.6357 -42.3658 -1 1 -1 0.00414758 -0.00488055 -0.0164105 -9.74783 16.2328 21.2332 
9092 569 2 12.01 0.14 16.6409 10.0869 5.82996 -32.5414 59.2692 -43.3524 -1 1 -1 -0.00163861 0.00128239 -0.00362348 23.4282 -23.4635 -16.0978 
5265 330 1 16 -0.4 12.8165 13.8174 3.81919 61.9989 -35.3649 -45.3632 1 -1 -1 -0.00194975 -0.00198554 -0.0036153 54.4193 39.2973 -13.8781 
5277 330 3 1.008 0.03 10.9294 14.4499 3.6672 60.1118 -34.7325 -45.5151 1 -1 -1 0.000419034 0.00964865 0.0121319 4.11622 -6.85951 -11.0183 
5272 330 3 1.008 0.03 12.7468 15.7596 2.9866 61.9291 -33.4227 -46.1957 1 -1 -1 -0.0276561 0.00450979 0.00227699 8.25567 4.15452 4.65536 
5268 330 2 12.01 0.14 14.4595 15.3263 4.2572 63.6419 -33.8561 -44.9252 1 -1 -1 0.000438231 -0.00501669 0.00218548 40.0348 11.032 -21.5571 
4819 302 2 12.01 0.14 16.4762 13.7627 1.02777 164.023 -35.4196 -48.1546 3 -1 -1 0.00290701 -0.0084549 -0.007848 -15.4539 10.0157 -1.51072 
2430 152 3 1.008 0.03 10.2085 10.3933 0.9228 -137.339 59.5757 99.2875 -3 1 2 -0.0135283 -0.02612 -0.0074709 4.40137 3.08854 -0.0421208 
5266 330 1 16 -0.4 15.3275 14.2274 4.50798 64.5098 -34.9549 -44.6744 1 -1 -1 -0.00357804 -0.00179529 -0.00213954 17.5003 30.2662 0.0289445 
5270 330 2 12.01 0.11 16.4373 14.7708 5.24017 65.6197 -34.4116 -43.9422 1 -1 -1 9.04761e-05 -0.000944354 0.00458989 9.82932 -33.1704 -7.99497 
4824 302 3 1.008 0.03 16.0816 13.2062 1.88724 163.629 -35.9762 -47.2951 3 -1 -1 -0.00114369 -0.00341754 0.00685354 11.1275 -2.84155 -1.52743 
5273 330 3 1.008 0.03 15.0478 16.188 3.87857 64.2302 -32.9943 -45.3038 1 -1 -1 -0.00170647 -0.0110343 0.0242097 -8.1719 -10.073 2.4968 
1100 69 3 1.008 0.03 12.3129 10.6461 6.63182 61.4952 10.6461 -91.7329 1 0 -2 0.0145807 -0.0153162 0.00683317 -8.40839 3.61573 4.63282 
5274 330 3 1.008 0.03 14.0349 15.6296 5.17537 63.2173 -33.5528 -44.007 1 -1 -1 0.00528201 0.00265258 0.0203743 -17.552 4.53588 17.5281 
2432 152 3 1.008 0.03 9.18591 8.94072 0.674091 -138.361 58.1231 99.0388 -3 1 2 -0.0269761 0.00199406 0.0126196 5.38296 11.6768 0.899385 
5276 330 3 1.008 0.03 11.2488 12.7054 3.55258 60.4311 -36.477 -45.6298 1 -1 -1 0.00514556 0.0119164 0.00252462 -1.76776 5.76757 1.33285 
4823 302 3 1.008 0.03 15.5617 14.0295 0.452809 163.109 -35.1528 -48.7295 3 -1 -1 0.00625079 -0.000455071 0.00649069 13.0869 -1.12582 7.76204 
5280 330 3 1.008 0.03 16.0573 15.2241 6.15242 65.2396 -33.9582 -43.0299 1 -1 -1 -0.0257609 -0.00166417 0.0207863 6.47346 -3.38593 8.08177 
7298 457 1 16 -0.4 10.2805 16.7647 0.64121 10.2805 115.129 0.64121 0 2 0 0.00357153 0.00277213 -0.000650521 9.57816 17.307 -7.69767 
3886 243 3 1.008 0.03 24.83 10.6153 1.97304 123.195 -38.5671 100.338 2 -1 2 -0.00713556 -0.00123474 0.00912113 12.287 -4.95407 -7.12698 
4829 302 3 1.008 0.03 17.3704 11.1212 1.00488 164.917 -38.0612 -48.1775 3 -1 -1 0.00251781 -0.0082086 -0.0151862 4.0214 -2.42567 22.8153 
6870 430 2 12.01 0.11 21.3562 15.8787 2.11514 70.5385 15.8787 2.11514 1 0 0 -0.0050205 -0.00692687 -0.00243377 64.3312 -45.4404 -5.04803 
3874 243 1 16 -0.4 24.8139 9.11744 0.574794 123.179 -40.0649 98.9395 2 -1 2 0.00394854 0.0017927 0.0018585 -7.6502 -38.3901 16.9727 
4949 310 2 12.01 0.11 22.2328 16.6157 6.51635 71.4151 16.6157 6.51635 1 0 0 -0.00757013 -0.000856014 -0.00348206 12.5457 26.2285 -37.4411 
4826 302 3 1.008 0.03 18.3198 14.906 1.49027 165.867 -34.2764 -47.6921 3 -1 -1 -0.00199514 -0.0074144 0.0227353 5.55572 -17.5853 5.28875 
9095 569 3 1.008 0.03 18.7974 10.148 5.93653 -30.385 59.3304 -43.2458 -1 1 -1 0.000614805 0.00819358 -0.00487768 4.65125 3.35063 1.41349 