ITEM: TIMESTEP
3050000
ITEM: NUMBER OF ATOMS
10479
ITEM: BOX BOUNDS pp pp pp
4.0882558190751794e-01 4.9591174418091420e+01
4.0882558190751794e-01 4.9591174418091420e+01
4.0882558190751794e-01 4.9591174418091420e+01
ITEM: ATOMS id mol type mass q x y z xu yu zu ix iy iz vx vy vz fx fy fz 
10117 636 4 14.01 -0.66 1.21599 2.01188 1.94975 1.21599 2.01188 51.1321 0 0 1 -0.000688563 0.000743754 -0.00164365 -30.0444 1.19325 12.5747 
10125 636 5 32.06 1.02 0.956171 3.14372 2.99213 0.956171 3.14372 52.1745 0 0 1 -0.00145179 0.00121661 -0.00145299 -23.0496 -3.78217 -36.0929 
10126 636 6 16 -0.53 1.19103 4.49268 2.55385 1.19103 4.49268 51.7362 0 0 1 -0.00254167 -0.00237804 0.00284092 3.857 2.07269 1.9568 
10127 636 6 16 -0.53 1.39264 2.77399 4.31121 1.39264 2.77399 53.4936 0 0 1 0.00213262 -0.00437463 0.00172142 15.1064 5.58841 26.6234 
10118 636 5 32.06 1.02 2.44674 1.85351 1.06004 2.44674 1.85351 50.2424 0 0 1 -0.000903189 -0.00239884 0.00114062 -16.7856 21.7358 -20.8416 
7936 496 3 1.008 0.03 4.14709 4.64866 3.05949 4.14709 4.64866 52.2418 0 0 1 0.00464996 -0.030864 0.0038204 7.89691 -1.19091 20.1589 
7935 496 3 1.008 0.03 5.04422 3.35785 3.8991 5.04422 3.35785 53.0814 0 0 1 0.0119038 0.0112865 -0.000933657 -11.0557 22.1305 10.2088 
7922 496 1 16 -0.4 3.51633 4.39959 5.05034 3.51633 4.39959 54.2327 0 0 1 0.00363913 -0.00148074 -0.000534685 -21.8767 -1.12832 10.8149 
7926 496 2 12.01 0.11 4.54112 4.35139 4.06656 4.54112 4.35139 53.2489 0 0 1 0.00415249 -0.00364325 -0.006076 0.766767 -3.42146 -27.0017 
7929 496 3 1.008 0.03 2.83527 6.18568 4.14876 2.83527 6.18568 53.3311 0 0 1 0.0249936 -0.0158902 0.0105677 -0.956868 -14.4967 23.8837 
962 61 1 16 -0.4 3.86447 1.72096 5.36432 3.86447 1.72096 54.5467 0 0 1 0.00172028 0.00060037 0.00399587 -13.7639 -12.1871 -1.79928 
7927 496 3 1.008 0.03 0.70461 5.92231 5.05527 0.70461 5.92231 54.2376 0 0 1 0.0103343 0.016097 -0.00795157 43.6257 -6.45247 43.1467 
10119 636 6 16 -0.53 3.5525 2.57395 1.569 3.5525 2.57395 50.7513 0 0 1 0.000131259 3.71037e-05 0.000468525 45.4196 0.542713 5.12879 
7934 496 3 1.008 0.03 5.26072 5.08556 4.39556 5.26072 5.08556 53.5779 0 0 1 0.00181596 0.0152881 -0.00975773 13.084 2.09532 -5.14117 
7924 496 2 12.01 0.14 2.94073 5.72733 5.17548 2.94073 5.72733 54.3578 0 0 1 -0.00545658 -0.00804389 0.00018494 -12.425 -6.00944 -44.356 
7923 496 2 12.01 0.14 1.54988 5.68524 5.84697 1.54988 5.68524 55.0293 0 0 1 0.00379224 0.00660665 -0.00058091 -36.2117 7.76244 -41.6979 
974 61 3 1.008 0.03 2.85912 0.62566 3.9004 2.85912 0.62566 53.0827 0 0 1 -0.0025574 0.0137054 0.027234 17.5188 -6.54532 6.2576 
966 61 2 12.01 0.11 3.85132 0.642558 4.40303 3.85132 0.642558 53.5854 0 0 1 0.00388099 -0.00749997 0.0001506 -7.63731 8.85255 -10.9788 
10461 672 9 24.305 2 2.50562 3.00705 6.03126 2.50562 3.00705 55.2136 0 0 1 -0.0006231 0.00285782 -0.000286117 -0.923223 -14.6248 -22.1121 
964 61 2 12.01 0.14 5.06575 1.57077 6.08054 5.06575 1.57077 55.2629 0 0 1 -0.00517837 0.00115522 0.00876663 -16.8044 -3.18717 5.33172 
969 61 3 1.008 0.03 5.85573 1.67473 5.38765 5.85573 1.67473 54.57 0 0 1 0.00231334 -0.00348848 -0.00803916 23.4833 4.70872 -9.90331 
4817 302 1 16 -0.4 1.75886 8.25969 3.39345 149.306 -40.9227 -45.7889 3 -1 -1 0.00186819 -0.00406463 -0.000130311 46.3898 -1.48038 -9.55559 
8462 529 3 1.008 0.03 6.17582 4.97328 0.936418 55.3582 54.1556 99.3011 1 1 2 -0.00785784 -0.0180796 0.0239534 8.31342 12.6735 3.68849 
8463 529 3 1.008 0.03 6.82237 6.64498 0.889517 56.0047 55.8273 99.2542 1 1 2 -0.0164409 -0.0220708 0.0193009 2.35441 -6.4989 6.317 
8454 529 2 12.01 0.11 7.10076 5.58506 1.00608 56.2831 54.7674 99.3708 1 1 2 0.00393905 0.00287038 0.000481817 -29.3397 -12.9001 -21.8163 
8450 529 1 16 -0.4 7.69417 5.26307 2.25208 56.8765 54.4454 100.617 1 1 2 -0.000843129 -0.00439192 -0.0013695 43.0165 10.8242 -3.98713 
7921 496 1 16 -0.4 1.24888 4.41848 6.43878 1.24888 4.41848 55.6211 0 0 1 0.000350918 -0.0033968 -0.0055858 -8.22472 0.606657 20.3432 
7930 496 3 1.008 0.03 3.56491 6.44353 5.65578 3.56491 6.44353 54.8381 0 0 1 -0.0416408 0.00723672 -0.00136098 15.6755 4.85465 13.5227 
975 61 3 1.008 0.03 4.61214 0.827956 3.62836 4.61214 0.827956 52.8107 0 0 1 -0.0161147 -9.21498e-05 -0.035462 -6.43285 -0.795834 3.06246 
2242 141 1 16 -0.4 1.69405 1.55607 7.10894 1.69405 1.55607 56.2913 0 0 1 -0.00617421 -0.00349128 0.000184111 -39.7454 -16.9121 -6.49124 
970 61 3 1.008 0.03 5.09727 0.537661 6.43527 5.09727 0.537661 55.6176 0 0 1 0.0118314 -0.0191718 -0.000772085 6.27593 6.34775 13.2582 
428 27 3 1.008 0.03 7.60975 0.456454 3.89899 7.60975 49.6388 53.0813 0 1 1 0.0170845 -0.0424661 0.00516103 6.13199 -21.5245 -2.67995 
2060 129 3 1.008 0.03 8.00726 3.12345 5.3868 57.1896 52.3058 54.5692 1 1 1 0.0200215 -0.0154089 0.0375981 -5.64737 -15.547 24.353 
2053 129 2 12.01 0.11 8.44344 2.78746 6.36777 57.6258 51.9698 55.5501 1 1 1 -0.000709407 -0.00536286 -0.00097133 47.8069 43.2661 -48.5104 
2049 129 1 16 -0.4 7.96556 1.69365 7.01874 57.1479 50.876 56.2011 1 1 1 -0.00395172 0.00394551 -0.0022746 -18.4668 -40.8282 19.2904 
4821 302 2 12.01 0.11 0.664091 8.00605 2.5664 148.211 -41.1763 -46.616 3 -1 -1 -0.00263386 -0.00141165 0.00727232 2.98877 13.1104 -3.19507 
4823 302 3 1.008 0.03 3.44398 7.75028 2.10923 150.991 -41.4321 -47.0731 3 -1 -1 0.0188368 -0.00453623 0.0072682 4.168 -14.1603 5.68921 
4819 302 2 12.01 0.14 2.96557 8.57647 2.60587 150.513 -40.6059 -46.5765 3 -1 -1 -0.00120587 -0.00693184 0.00289476 -34.5895 9.8255 2.17366 
4829 302 3 1.008 0.03 0.92387 7.4082 1.69931 148.471 -41.7742 -47.483 3 -1 -1 0.000637546 0.0109531 0.00820063 -0.872085 1.28695 -6.95531 
963 61 2 12.01 0.14 5.11988 2.61709 7.19055 5.11988 2.61709 56.3729 0 0 1 0.00775582 -0.00148579 0.00318092 12.7885 12.0503 -7.60571 
961 61 1 16 -0.4 3.85055 3.28606 7.32449 3.85055 3.28606 56.5068 0 0 1 0.00304575 0.00118339 -0.000925071 13.9753 -18.5282 13.5599 
10120 636 6 16 -0.53 2.59245 0.547631 0.504014 2.59245 0.547631 49.6864 0 0 1 -0.00186012 -0.00981111 -0.00455961 10.8873 -21.09 -1.41366 
7928 496 3 1.008 0.03 1.59388 6.42722 6.63977 1.59388 6.42722 55.8221 0 0 1 0.00291294 -0.0245264 0.0103914 -8.29782 5.96914 -0.271841 
10424 656 8 19 -0.16 0.511756 8.28665 5.78149 49.6941 8.28665 5.78149 1 0 0 0.00233294 -0.00301256 -0.000486418 0.0283741 -3.69718 19.6599 
8460 529 3 1.008 0.03 8.22579 7.51113 6.23854 57.4081 56.6935 104.603 1 1 2 -0.00698428 -0.00649387 -0.00357196 -7.09277 20.6169 14.0224 
967 61 3 1.008 0.03 5.90547 3.40071 6.92251 5.90547 3.40071 56.1049 0 0 1 -0.00106866 0.00794159 -0.0174339 -20.1993 -25.328 15.3121 
2061 129 3 1.008 0.03 8.50749 3.61811 7.01168 57.6898 52.8005 56.194 1 1 1 0.0204401 -0.00384573 0.0107622 -10.7657 20.0902 16.5676 
8457 529 3 1.008 0.03 8.87521 6.89273 2.07207 58.0576 56.0751 100.437 1 1 2 0.00260423 0.0190341 -0.0103395 7.10347 16.8323 -7.87502 
1094 69 2 12.01 0.11 13.7389 6.62402 7.03503 62.9213 6.62402 -91.3297 1 0 -2 -0.00017544 0.0125273 -0.000297677 4.78621 -23.4926 -10.1023 
6506 407 3 1.008 0.03 14.0146 1.94084 3.36008 -35.1678 51.1232 101.725 -1 1 2 -0.0384002 -0.0224501 -0.0194503 -12.0283 -8.65657 8.04631 
6503 407 3 1.008 0.03 11.981 0.752071 4.2641 -37.2013 49.9344 102.629 -1 1 2 0.0080277 -0.0266354 -0.00276981 14.3475 -2.81912 9.59914 
8451 529 2 12.01 0.14 9.48641 5.87175 3.7878 58.6688 55.0541 102.152 1 1 2 0.00102513 -0.00487803 -0.00252812 -21.1363 -11.822 38.2143 
6500 407 2 12.01 0.14 13.3756 2.37974 4.14374 -35.8068 51.5621 102.508 -1 1 2 -0.00896376 -0.000960897 -0.00561902 20.1765 35.696 -2.97335 
8456 529 3 1.008 0.03 9.4231 4.88661 4.32346 58.6054 54.069 102.688 1 1 2 0.00181932 -0.0111351 0.00409181 -7.03923 15.1374 -19.5075 
8458 529 3 1.008 0.03 9.72585 5.42938 1.63091 58.9082 54.6117 99.9956 1 1 2 0.0193148 0.00188407 0.0155096 1.54809 -2.48035 4.40004 
8452 529 2 12.01 0.14 9.03041 5.87284 2.34614 58.2128 55.0552 100.711 1 1 2 -0.0145257 -0.00438534 0.00326994 -42.7663 -21.5847 -8.17465 
6498 407 1 16 -0.4 12.4715 3.33525 3.54011 -36.7109 52.5176 101.905 -1 1 2 0.000447124 -0.00123888 0.00407339 18.3574 -5.382 0.566756 
6505 407 3 1.008 0.03 14.1527 2.9603 4.72095 -35.0296 52.1426 103.086 -1 1 2 -0.00411903 -0.0234526 0.00773921 -24.7337 -15.6627 -3.27078 
1090 69 1 16 -0.4 14.9797 6.73037 6.33208 64.162 6.73037 -92.0326 1 0 -2 -0.00101905 -0.00491808 0.00647235 -14.5233 18.9681 9.29241 
6511 407 3 1.008 0.03 13.9187 4.82582 2.93208 -35.2637 54.0082 101.297 -1 1 2 0.00922855 -0.0145139 0.00706989 -9.39392 -8.06903 5.05427 
6504 407 3 1.008 0.03 11.7171 1.84552 5.52645 -37.4652 51.0279 103.891 -1 1 2 -0.00883923 1.90613e-05 -0.0357388 21.1607 -1.08711 0.0910098 
6499 407 2 12.01 0.14 12.5628 1.36451 4.98242 -36.6196 50.5469 103.347 -1 1 2 -0.000630159 -0.00922015 0.00570847 -20.21 2.44551 -13.0489 
6497 407 1 16 -0.4 13.4259 0.620749 5.84572 -35.7565 49.8031 104.21 -1 1 2 0.00173084 0.00298291 -0.00374638 -37.3605 -27.3926 28.1987 
8449 529 1 16 -0.4 8.63838 6.84859 4.44786 57.8207 56.0309 102.813 1 1 2 0.00313508 -0.00443046 -0.00347371 21.6346 -24.9491 1.44966 
8455 529 3 1.008 0.03 10.5231 6.1009 3.93046 59.7054 55.2833 102.295 1 1 2 0.0186712 -0.00787804 -0.0118676 12.7601 11.778 -8.49166 
6502 407 2 12.01 0.11 13.1281 4.15137 2.5552 -36.0543 53.3337 100.92 -1 1 2 -0.000407031 0.00467679 -0.00491086 -9.27531 9.40508 -12.6936 
1097 69 3 1.008 0.03 16.3971 5.58429 5.56608 65.5795 5.58429 -92.7986 1 0 -2 -0.00552754 0.0114493 -0.00143416 15.3039 4.34909 -2.46531 
6512 407 3 1.008 0.03 13.6305 3.51942 1.78886 -35.5519 52.7018 100.154 -1 1 2 -0.0221363 -0.02129 0.0353429 -12.0996 9.18634 6.09834 
6510 407 3 1.008 0.03 12.3397 4.80996 2.08278 -36.8426 53.9923 100.447 -1 1 2 0.00644559 -0.0140981 0.0247386 21.0975 -17.1436 7.06701 
2059 129 3 1.008 0.03 9.51108 2.72419 6.11855 58.6934 51.9065 55.3009 1 1 1 0.00374084 -0.00251514 0.00607878 -6.15005 -13.2676 0.286691 
9098 569 3 1.008 0.03 16.1811 7.30754 3.62601 -33.0012 56.4899 -45.5563 -1 1 -1 -0.00990554 0.0267356 0.00231389 38.0941 3.7259 -7.47547 
9766 612 6 16 -0.53 16.3413 1.20188 2.00088 -32.8411 50.3842 2.00088 -1 1 0 0.00240028 0.00352753 0.000614506 -4.14858 -1.7836 10.2553 
1102 69 3 1.008 0.03 13.0898 5.94072 6.48927 62.2721 5.94072 -91.8754 1 0 -2 0.009512 0.0224563 -0.0177533 -0.315657 -2.93508 1.27158 
8459 529 3 1.008 0.03 9.97731 7.53663 5.77406 59.1597 56.719 104.139 1 1 2 -0.0124117 -0.0224732 -0.0229444 -2.03027 -2.91567 14.7447 
1104 69 3 1.008 0.03 13.1854 7.51525 7.07185 62.3677 7.51525 -91.2928 1 0 -2 -0.0153636 -0.00317508 -0.0126221 -7.17788 27.8942 0.0313496 
8453 529 2 12.01 0.11 9.03177 6.98247 5.80263 58.2141 56.1648 104.167 1 1 2 0.00419806 -0.0062477 -0.0014782 -5.13501 -2.59524 -26.1241 
9769 612 8 19 -0.16 13.6069 0.432541 1.68522 -35.5754 49.6149 1.68522 -1 1 0 0.00251765 1.2151e-05 -0.00157985 17.2947 -1.10737 -5.43385 
847 53 3 1.008 0.03 12.8347 8.58856 2.74746 62.017 57.7709 -46.4349 1 1 -1 0.00985302 -0.0259076 0.0116289 6.01083 -13.5925 8.47962 
1092 69 2 12.01 0.14 15.6599 5.51879 6.34142 64.8422 5.51879 -92.0233 1 0 -2 -0.00396682 0.00791648 0.00279505 -26.9402 -6.76161 -28.874 
1098 69 3 1.008 0.03 14.9923 4.74969 5.91163 64.1746 4.74969 -92.4531 1 0 -2 0.00168777 0.0189106 -0.0119371 7.92 -1.41606 17.222 
8461 529 3 1.008 0.03 9.03304 6.04294 6.34561 58.2154 55.2253 104.71 1 1 2 0.000266601 -0.00573718 -0.00472315 11.0574 -4.53946 -0.213738 
9092 569 2 12.01 0.14 17.1511 7.72587 3.18433 -32.0313 56.9082 -45.998 -1 1 -1 -0.00175218 0.00124475 0.00483546 -45.0316 21.4079 8.02884 
9097 569 3 1.008 0.03 17.9629 7.80547 3.93012 -31.2194 56.9878 -45.2522 -1 1 -1 0.0123477 0.0211797 -0.0242919 -9.22046 -3.53058 -3.79058 
1288 81 3 1.008 0.03 23.9253 0.974322 0.651114 -25.2571 99.339 0.651114 -1 2 0 0.0192691 -0.00200926 -0.0370627 5.82997 10.863 -4.23206 
10135 637 6 16 -0.53 22.9404 0.730996 5.20073 -26.242 49.9133 5.20073 -1 1 0 -0.00787193 -0.00126054 0.000756483 -0.375037 5.43218 11.7455 
9094 569 2 12.01 0.11 17.9414 5.6421 2.41597 -31.241 54.8244 -46.7664 -1 1 -1 0.000947429 0.00346623 0.00245599 -61.921 10.0229 3.64604 
9762 612 8 19 -0.16 17.9877 2.65885 1.06511 -31.1947 51.8412 1.06511 -1 1 0 -0.00604136 0.00177194 0.00207685 0.246518 17.7731 13.352 
3215 201 3 1.008 0.03 20.2442 8.35928 1.25405 -78.1205 155.906 1.25405 -2 3 0 -0.0125747 0.00755459 -0.0128682 -32.8199 -34.4195 -4.2089 
10456 667 9 24.305 2 24.7563 7.52905 5.83399 24.7563 56.7114 5.83399 0 1 0 0.000808184 0.00240363 0.00258503 -4.1996 -0.551904 8.25502 
3204 201 2 12.01 0.14 22.8574 8.45634 0.502243 -75.5073 156.003 0.502243 -2 3 0 0.00304983 -0.00363458 -0.000757019 -47.5768 15.0726 10.904 
10138 637 8 19 -0.16 23.1823 2.22741 2.73092 -26 51.4098 2.73092 -1 1 0 0.00727384 -0.00226251 -0.00316216 -0.411373 1.38259 6.69193 
10136 637 7 12.01 0.35 22.004 2.12494 3.33844 -27.1783 51.3073 3.33844 -1 1 0 0.00149173 0.00317688 0.00145069 -1.58782 -65.7777 1.22642 
10132 637 4 14.01 -0.66 20.5878 1.58082 5.48377 -28.5945 50.7632 5.48377 -1 1 0 -0.00510711 0.00337794 0.00247729 -7.70507 24.0273 11.5301 
10141 637 6 16 -0.53 18.2899 1.76596 6.32507 -30.8925 50.9483 6.32507 -1 1 0 -0.00101601 -0.00866084 -0.0041751 35.7513 47.074 14.2889 
10139 637 8 19 -0.16 21.3642 3.18963 3.09463 -27.8181 52.372 3.09463 -1 1 0 0.00367086 -0.000265959 0.00324083 -27.9841 40.5468 -21.9392 
10142 637 6 16 -0.53 19.6851 3.91749 6.12362 -29.4973 53.0998 6.12362 -1 1 0 0.00541678 0.00430634 -0.00279511 -17.1583 -6.06905 -2.39389 
4703 294 3 1.008 0.03 22.7222 5.52536 4.35066 22.7222 54.7077 4.35066 0 1 0 -0.0110653 0.0291663 0.00277959 10.7481 -19.4969 -8.88825 
10134 637 6 16 -0.53 22.5957 3.18815 5.55048 -26.5867 52.3705 5.55048 -1 1 0 0.00233739 0.00146529 -0.0011918 4.33039 -16.261 6.01079 
4704 294 3 1.008 0.03 21.2445 5.84798 5.17984 21.2445 55.0303 5.17984 0 1 0 0.0272761 0.0122399 0.0129315 -4.03701 3.82535 -2.63582 
4690 294 1 16 -0.4 22.8552 7.16448 5.46479 22.8552 56.3468 5.46479 0 1 0 -0.00145136 0.0065828 0.00794125 7.38757 -0.146368 4.46497 
4694 294 2 12.01 0.11 22.0741 6.30393 4.64113 22.0741 55.4863 4.64113 0 1 0 -0.000565801 0.00207316 -0.00535131 0.454535 21.0065 -10.2139 
4702 294 3 1.008 0.03 21.7732 6.82294 3.69937 21.7732 56.0053 3.69937 0 1 0 0.0112205 0.0190069 0.0139763 -2.60013 -10.0525 15.2733 
10140 637 5 32.06 1.02 19.5887 2.48795 6.3363 -29.5936 51.6703 6.3363 -1 1 0 -0.00367315 0.00647657 0.000563423 -6.54512 -78.2128 -20.5715 
10133 637 5 32.06 1.02 22.0814 1.89075 5.14189 -27.1009 51.0731 5.14189 -1 1 0 -0.0015664 -0.000263096 -0.000851585 19.5759 10.0461 -8.87786 
4697 294 3 1.008 0.03 21.0681 8.08352 6.01845 21.0681 57.2659 6.01845 0 1 0 -0.00833903 -0.00804562 0.0176146 -7.508 -5.80469 10.4403 
1226 77 3 1.008 0.03 24.0297 7.29114 2.75579 24.0297 56.4735 2.75579 0 1 0 0.029494 0.000650589 0.0146694 -15.9557 -1.87591 -7.19941 
4692 294 2 12.01 0.14 22.0936 8.31089 5.77982 22.0936 57.4932 5.77982 0 1 0 0.00351091 0.00209903 -0.00453555 -13.7242 -17.2585 -22.4437 
9090 569 1 16 -0.4 17.5163 6.98444 2.04642 -31.666 56.1668 -47.1359 -1 1 -1 0.000769535 -0.00140735 -0.00307404 12.6906 -29.0184 6.46503 
9104 569 3 1.008 0.03 17.0231 5.09329 2.90688 -32.1592 54.2756 -46.2755 -1 1 -1 0.00744224 0.00389294 0.00993508 48.6763 21.3258 -25.3341 
10137 637 8 19 -0.16 21.3551 1.08348 2.75647 -27.8272 50.2658 2.75647 -1 1 0 0.00116324 0.00359978 -0.00917018 12.1472 26.8041 6.50841 
9103 569 3 1.008 0.03 18.7645 5.71323 3.11415 -30.4178 54.8956 -46.0682 -1 1 -1 -0.00205533 0.018407 0.00310741 6.4543 -5.55981 3.02486 
9102 569 3 1.008 0.03 18.2532 5.17129 1.4738 -30.9291 54.3536 -47.7085 -1 1 -1 -0.00517036 0.00990523 0.0329682 -0.45204 -5.3659 9.20752 
3209 201 3 1.008 0.03 23.8451 8.42561 0.821321 -74.5196 155.973 0.821321 -2 3 0 -0.00283651 0.0222837 0.000867146 34.6585 6.60237 -1.63582 
3201 201 1 16 -0.4 23.3371 6.20527 0.553117 -75.0276 153.752 0.553117 -2 3 0 0.00498736 0.00325665 -0.00441495 19.5786 4.61692 23.8566 
9764 612 8 19 -0.16 19.1342 0.915536 0.855031 -30.0481 50.0979 0.855031 -1 1 0 -0.0010381 -0.00778377 0.00136472 3.11166 -5.36091 0.35695 
2653 166 3 1.008 0.03 22.8783 5.31565 7.41524 22.8783 54.498 7.41524 0 1 0 -0.0132018 0.00905434 -0.00687591 -23.9606 4.37742 -19.2039 
3212 201 3 1.008 0.03 22.542 4.23318 0.579957 -75.8227 151.78 0.579957 -2 3 0 0.00256456 0.000488996 0.00667434 -10.2558 4.95548 -0.0161819 
4832 302 3 1.008 0.03 6.63527 8.68871 4.98212 154.182 -40.4936 -44.2002 3 -1 -1 0.00290672 0.0107077 -0.00390697 6.21231 -1.24249 1.14915 
2428 152 3 1.008 0.03 6.47912 12.5318 0.807247 -141.068 61.7142 99.1719 -3 1 2 0.00322695 -0.00109923 -0.0195885 7.4172 -5.85156 -1.52369 
3791 237 3 1.008 0.03 0.626255 12.2445 3.76241 0.626255 61.4268 3.76241 0 1 0 -0.0205684 0.00523179 -0.0118052 -4.96418 -6.5357 -12.7138 
3652 229 2 12.01 0.14 0.413055 15.4666 6.26394 0.413055 64.6489 6.26394 0 1 0 -0.00828918 0.00426236 -0.00283641 -38.746 -16.6394 -1.44102 
3658 229 3 1.008 0.03 0.988022 14.553 6.36736 0.988022 63.7353 6.36736 0 1 0 0.0198773 -0.0165733 0.0129356 2.66521 -4.0087 -1.87737 
4818 302 1 16 -0.4 5.15895 8.74364 3.64581 152.706 -40.4387 -45.5365 3 -1 -1 0.000364423 -0.000549124 0.00213308 -25.0336 12.5633 15.3059 
4822 302 2 12.01 0.11 5.63266 9.08765 4.95133 153.18 -40.0947 -44.231 3 -1 -1 0.00438903 0.00505036 0.00256157 34.3898 6.4681 -20.5725 
10423 656 8 19 -0.16 1.31129 10.1332 6.17734 50.4936 10.1332 6.17734 1 0 0 0.0013289 -0.00271888 -0.00163466 10.2175 26.3293 -15.2865 
4830 302 3 1.008 0.03 5.75319 10.1566 5.12175 153.3 -39.0257 -44.0606 3 -1 -1 0.0013072 0.0317723 0.0203901 -3.22505 2.43636 -4.0924 
4831 302 3 1.008 0.03 5.17597 8.67079 5.80833 152.723 -40.5116 -43.374 3 -1 -1 0.0105284 -0.0140746 0.00275379 -21.7342 -12.2498 10.907 
4826 302 3 1.008 0.03 3.46299 9.63064 4.27793 151.01 -39.5517 -44.9044 3 -1 -1 0.0227623 -0.00560352 0.0193719 -21.3329 20.2302 39.3914 
8327 521 3 1.008 0.03 4.7667 14.5005 6.2414 103.131 63.6828 55.4238 2 1 1 0.0181297 -0.0144533 0.0188769 2.46258 -1.28629 -8.23505 
4824 302 3 1.008 0.03 2.60223 9.10822 1.73597 150.149 -40.0741 -47.4464 3 -1 -1 0.0170449 -0.0103864 -0.00601878 3.59863 12.497 -1.80394 
4825 302 3 1.008 0.03 4.20789 10.438 2.85698 151.755 -38.7443 -46.3254 3 -1 -1 0.0143911 -0.0052407 0.0162674 -12.6046 -25.4182 16.0468 
4820 302 2 12.01 0.14 3.93997 9.4676 3.38779 151.487 -39.7147 -45.7946 3 -1 -1 0.00412372 0.00913348 -0.00211294 39.1816 -6.12049 -49.0618 
8330 521 3 1.008 0.03 5.11498 13.337 3.35121 103.48 62.5194 52.5336 2 1 1 -0.0142056 0.00728589 -0.00592092 -10.1046 24.5948 9.24927 
3783 237 3 1.008 0.03 1.76066 15.5948 0.641059 1.76066 64.7772 0.641059 0 1 0 -0.0163753 0.0131371 0.000491069 -10.1388 -2.6633 11.085 
3784 237 3 1.008 0.03 2.40605 15.4568 2.2887 2.40605 64.6391 2.2887 0 1 0 -0.00740853 0.0265922 0.0365981 -18.1728 2.85646 -7.93401 
3780 237 2 12.01 0.14 0.737273 14.1123 1.82471 0.737273 63.2946 1.82471 0 1 0 0.00264758 -0.00262645 0.00809858 18.9167 19.6191 -4.0855 
3779 237 2 12.01 0.14 1.45675 15.4613 1.69393 1.45675 64.6437 1.69393 0 1 0 0.00203378 -1.61588e-05 5.29827e-06 15.1788 -16.3509 -6.49048 
3786 237 3 1.008 0.03 1.5903 13.5233 1.83498 1.5903 62.7057 1.83498 0 1 0 0.00318098 0.00483797 0.0189602 24.2392 -32.458 7.70639 
8323 521 2 12.01 0.14 4.71699 13.7322 5.45573 103.082 62.9145 54.6381 2 1 1 -0.00306544 -0.00142942 -0.00504317 -18.3259 10.2249 3.74758 
8324 521 2 12.01 0.14 5.24558 14.1736 4.09326 103.61 63.356 53.2756 2 1 1 -0.00324295 0.00122551 -0.000496678 41.9362 -48.1469 1.57131 
8321 521 1 16 -0.4 3.37213 13.3011 5.29832 101.737 62.4835 54.4807 2 1 1 -0.000990411 -0.00152221 0.0025742 10.0845 -5.55607 19.2483 
8325 521 2 12.01 0.11 3.02337 12.4746 6.42082 101.388 61.657 55.6032 2 1 1 -0.00515799 0.00415608 -0.00431957 50.4127 -7.09156 8.48012 
8329 521 3 1.008 0.03 6.36063 14.1615 4.17226 104.725 63.3438 53.3546 2 1 1 0.0110778 0.00270241 -0.0273537 -21.032 8.809 1.59518 
8328 521 3 1.008 0.03 5.29135 12.8993 5.81903 103.656 62.0817 55.0014 2 1 1 0.00934087 0.0208336 0.00800821 11.6423 -6.61348 -0.647348 
8332 521 3 1.008 0.03 2.06028 12.2093 6.22798 100.425 61.3917 55.4103 2 1 1 0.00497604 -0.00632274 -0.0318518 -45.0018 -18.9369 -3.76079 
8322 521 1 16 -0.4 4.80218 15.4504 3.75746 103.167 64.6328 52.9398 2 1 1 0.00762606 0.00119572 -0.00591746 -23.501 3.4209 11.1891 
3650 229 1 16 -0.4 0.665633 16.1328 5.06761 0.665633 65.3152 5.06761 0 1 0 0.00328305 0.00690325 0.00131958 -1.95024 3.08276 -13.3416 
3777 237 1 16 -0.4 0.575069 16.4419 2.17172 0.575069 65.6242 2.17172 0 1 0 -0.0046691 -0.00404316 -0.000993866 -5.17246 28.604 -6.73869 
8336 521 3 1.008 0.03 4.85164 15.1728 1.74361 103.216 64.3551 50.926 2 1 1 -0.0156389 -0.0228765 0.02951 -1.41842 -17.0141 -13.7207 
3664 229 3 1.008 0.03 2.72392 16.2179 5.33209 2.72392 65.4002 5.33209 0 1 0 0.00791212 0.010579 0.00385328 10.2862 -7.65398 3.33305 
8326 521 2 12.01 0.11 5.24643 15.8007 2.50196 103.611 64.9831 51.6843 2 1 1 -0.00454225 -0.00214883 0.000750843 -1.51295 -7.946 10.2068 
8335 521 3 1.008 0.03 6.3023 15.7645 2.57811 104.667 64.9469 51.7605 2 1 1 0.0153421 -0.0376916 0.0199521 20.4735 3.42806 -10.4331 
7308 457 3 1.008 0.03 8.55431 12.7486 6.0731 8.55431 111.113 6.0731 0 2 0 0.0273504 -0.0261076 -0.00860769 14.8199 -4.92173 -8.71385 
8333 521 3 1.008 0.03 3.67774 11.5597 6.55708 102.042 60.7421 55.7394 2 1 1 0.0032996 -0.00549082 -0.000297343 -19.3556 19.5354 -12.1352 
8334 521 3 1.008 0.03 4.90668 16.7572 2.26753 103.271 65.9396 51.4499 2 1 1 -0.0117462 0.00971399 0.00475982 -4.28964 30.5582 -4.01707 
5085 318 3 1.008 0.03 5.35435 16.7827 6.55523 5.35435 115.147 104.92 0 2 2 -0.00663509 0.0123436 0.0149935 17.3859 4.64676 13.5037 
4491 281 3 1.008 0.03 8.5177 14.0904 4.09026 106.882 -35.0919 151.637 2 -1 3 0.021261 -0.0252687 -0.0032605 -6.42082 -9.0574 15.1438 
5079 318 3 1.008 0.03 7.85194 15.7716 6.49773 7.85194 114.136 104.862 0 2 2 0.0154561 -0.0231281 0.0136641 -11.2739 -39.157 12.7909 
5075 318 2 12.01 0.14 7.96293 16.7162 6.10335 7.96293 115.081 104.468 0 2 2 0.000668648 0.000474851 0.00355328 10.5573 48.0877 -30.7149 
5080 318 3 1.008 0.03 7.52414 16.778 5.0822 7.52414 115.143 103.447 0 2 2 0.00957641 6.16814e-05 -0.00945056 10.3842 -6.84605 10.5005 
3657 229 3 1.008 0.03 0.628188 16.0874 7.06182 0.628188 65.2698 7.06182 0 1 0 0.0261383 -0.00219469 -0.0340009 13.8502 18.9118 34.0855 
8331 521 3 1.008 0.03 3.03133 12.9292 7.41461 101.396 62.1115 56.597 2 1 1 0.00603377 -0.00355362 0.0123414 0.279748 10.9974 -6.26033 
4494 281 3 1.008 0.03 7.39548 16.48 0.897523 105.76 -32.7023 148.445 2 -1 3 0.023097 -0.0176547 0.0044529 4.8727 -4.88646 4.94611 
842 53 3 1.008 0.03 11.1941 11.1247 1.10839 60.3764 60.307 -48.074 1 1 -1 0.00417528 0.0110432 -0.0433553 -1.62841 -11.2689 -15.1752 
9096 569 3 1.008 0.03 15.9122 9.07975 1.9149 -33.2702 58.2621 -47.2675 -1 1 -1 -0.000313221 0.0357024 -0.00347988 24.4511 2.72923 2.70213 
9095 569 3 1.008 0.03 16.0716 9.5769 3.47632 -33.1108 58.7593 -45.706 -1 1 -1 -0.0193871 0.02765 0.0173074 3.41608 6.73602 14.9862 
9091 569 2 12.01 0.14 16.6942 9.14746 2.71234 -32.4882 58.3298 -46.47 -1 1 -1 -0.003391 0.00673468 0.00298725 -37.2385 -28.2321 0.787477 
841 53 3 1.008 0.03 11.9809 11.9383 2.17843 61.1632 61.1207 -47.0039 1 1 -1 0.000174825 0.00955331 -0.000769663 7.09465 15.7538 29.648 
7303 457 3 1.008 0.03 10.3833 14.2702 7.18032 10.3833 112.635 7.18032 0 2 0 -0.00177705 -0.00766966 0.00778951 -0.797426 2.32035 8.62973 
7297 457 1 16 -0.4 10.7305 12.7033 6.04556 10.7305 111.068 6.04556 0 2 0 0.0109461 -0.000590383 -0.00136548 -20.0549 -13.6242 -23.2631 
4492 281 3 1.008 0.03 9.21988 13.4403 2.64388 107.585 -35.7421 150.191 2 -1 3 0.00885713 0.0234407 0.0100788 2.12925 -10.9879 -6.67444 
4485 281 2 12.01 0.11 9.26421 14.2445 3.35139 107.629 -34.9379 150.898 2 -1 3 0.00387498 0.000934853 0.00580675 -5.53693 13.4378 -13.6486 
4481 281 1 16 -0.4 8.85362 15.4423 2.72476 107.218 -33.7401 150.272 2 -1 3 -0.00510958 0.00577243 0.00178666 23.6352 27.3594 -26.3765 
4483 281 2 12.01 0.14 9.8485 15.9746 1.76729 108.213 -33.2077 149.314 2 -1 3 -0.00440137 0.0074946 0.00411748 -8.91534 9.75446 42.4404 
848 53 3 1.008 0.03 12.4082 10.0972 3.51823 61.5905 59.2795 -45.6641 1 1 -1 0.015232 0.00738782 0.0266034 -6.36908 7.46177 29.2583 
838 53 2 12.01 0.11 12.3065 9.51117 2.65204 61.4889 58.6935 -46.5303 1 1 -1 0.000874748 -0.00672463 0.00231862 23.5049 -1.81395 -37.5059 
846 53 3 1.008 0.03 11.2949 9.28158 2.36691 60.4772 58.4639 -46.8154 1 1 -1 0.0206538 -0.0205997 0.0153405 -12.5429 -0.979088 3.86099 
834 53 1 16 -0.4 12.9837 10.2275 1.62732 62.166 59.4099 -47.555 1 1 -1 0.00363258 0.00622126 -0.00119175 -2.76795 -8.54474 2.83574 
5268 330 2 12.01 0.14 13.7156 14.6261 3.94685 62.898 -34.5563 -45.2355 1 -1 -1 -0.00402951 -0.0050417 0.00398327 5.95967 -37.6738 -37.6327 
5266 330 1 16 -0.4 14.7525 13.753 4.33115 63.9348 -35.4293 -44.8512 1 -1 -1 0.00215494 0.00646763 -3.5766e-05 4.79777 -0.0496516 15.3564 
5273 330 3 1.008 0.03 12.8946 14.6875 4.61058 62.077 -34.4948 -44.5718 1 -1 -1 0.0137682 -0.0121901 0.0218667 -16.7728 -2.14926 14.7841 
5280 330 3 1.008 0.03 14.4106 11.8394 3.50515 63.593 -37.343 -45.6772 1 -1 -1 0.027363 0.00851663 0.0229754 14.1802 1.3542 1.82928 
5274 330 3 1.008 0.03 13.4429 14.1263 3.02141 62.6252 -35.0561 -46.1609 1 -1 -1 0.00736869 0.0301032 -0.0170295 -18.2114 8.64078 2.06812 
5279 330 3 1.008 0.03 13.316 12.2503 4.64412 62.4984 -36.9321 -44.5382 1 -1 -1 0.0171149 0.0237036 -0.01663 -23.3748 4.01585 16.0835 
5270 330 2 12.01 0.11 14.3423 12.3897 4.44645 63.5247 -36.7926 -44.7359 1 -1 -1 0.000416728 0.00165444 -0.00862452 40.2763 -10.543 25.7149 
4493 281 3 1.008 0.03 10.2363 14.2813 3.82129 108.601 -34.901 151.368 2 -1 3 -0.0230248 0.00968783 0.00635464 6.4917 2.33656 3.18366 
5278 330 3 1.008 0.03 14.9687 11.9447 5.31512 64.1511 -37.2376 -43.8672 1 -1 -1 0.0222751 -0.00260523 0.00730182 -25.975 8.77342 -41.0945 
7309 457 3 1.008 0.03 9.33041 11.6289 4.8025 9.33041 109.994 4.8025 0 2 0 0.00698467 -0.0159322 0.0119672 1.55053 22.9497 32.5788 
7301 457 2 12.01 0.11 9.41725 12.0944 5.84777 9.41725 110.459 5.84777 0 2 0 -0.00375813 0.00550127 0.00205339 23.6843 -21.5525 -17.8262 
7307 457 3 1.008 0.03 9.40819 11.2038 6.49606 9.40819 109.568 6.49606 0 2 0 0.0247043 0.00652683 0.00783254 -7.11801 9.14999 0.147086 
7305 457 3 1.008 0.03 12.9262 13.6482 6.62326 12.9262 112.013 6.62326 0 2 0 0.00356836 -0.021892 -0.0205691 11.3238 1.4392 -2.71424 
4956 310 3 1.008 0.03 16.5755 15.9421 5.46627 65.7579 15.9421 5.46627 1 0 0 -0.00497071 -0.0195029 0.00542334 6.35786 -2.77846 5.89773 
833 53 1 16 -0.4 13.6352 13.3014 0.841269 62.8175 62.4837 -48.3411 1 1 -1 0.00729897 -0.00225462 0.00542562 2.05616 5.2148 -12.3827 
5088 318 3 1.008 0.03 11.721 16.1168 7.00784 11.721 114.481 105.373 0 2 2 -0.0257125 0.0159594 -0.00835782 23.8767 -28.4363 -11.3349 
7299 457 2 12.01 0.14 10.9171 13.331 7.28532 10.9171 111.696 7.28532 0 2 0 0.00137612 0.00100568 0.00337223 -11.2285 -10.2585 -5.72092 
4488 281 3 1.008 0.03 9.88133 15.3549 0.884866 108.246 -33.8275 148.432 2 -1 3 0.0114404 -0.0143236 0.0205132 7.03956 -1.34895 -8.63145 
5081 318 3 1.008 0.03 9.99043 16.4392 5.43024 9.99043 114.804 103.795 0 2 2 -0.014123 -0.0331161 -0.0214036 12.9465 -12.1282 -23.8246 
836 53 2 12.01 0.14 12.2233 11.3647 1.33685 61.4057 60.5471 -47.8455 1 1 -1 0.000921406 -0.00496755 -0.00306946 -10.3877 27.7582 -28.3317 
5267 330 2 12.01 0.14 14.2247 15.9516 3.56443 63.4071 -33.2307 -45.6179 1 -1 -1 0.00411084 0.00163954 -0.000257205 29.5494 27.4032 16.2834 
5271 330 3 1.008 0.03 15.027 15.8536 2.84066 64.2093 -33.3288 -46.3417 1 -1 -1 -0.0314277 0.0148474 -0.011201 3.98728 0.141572 -1.17253 
5272 330 3 1.008 0.03 14.6355 16.3519 4.50344 63.8179 -32.8304 -44.6789 1 -1 -1 -0.0125443 -0.0160614 0.00278413 -1.30781 2.80175 -11.5565 
4487 281 3 1.008 0.03 10.753 15.9161 2.34975 109.118 -33.2662 149.897 2 -1 3 -0.0177908 0.0328567 -0.0176994 14.4276 -10.1051 -6.07133 
5074 318 1 16 -0.4 9.92496 16.7945 7.39594 9.92496 115.159 105.761 0 2 2 -0.00110688 -0.000207346 -0.00309553 3.87628 2.2925 23.3396 
9089 569 1 16 -0.4 17.8068 9.93479 2.4568 -31.3756 59.1171 -46.7255 -1 1 -1 0.0031142 0.00130143 0.000552105 38.2488 -9.17257 -17.6097 
4684 293 3 1.008 0.03 18.8892 9.28018 6.98204 -30.2931 58.4625 56.1644 -1 1 1 0.00139007 0.00946218 -0.0439587 11.027 -3.2537 12.2208 
4685 293 3 1.008 0.03 17.9581 10.3062 6.09566 -31.2242 59.4886 55.278 -1 1 1 -0.000845076 -0.0146918 0.0283344 -4.28152 15.0859 -9.75009 
3202 201 1 16 -0.4 22.126 8.74766 1.73475 -76.2387 156.295 1.73475 -2 3 0 0.00361124 -0.00261028 3.13146e-05 19.2919 -4.26447 -12.9439 
4689 294 1 16 -0.4 24.1146 9.06422 6.69241 24.1146 58.2466 6.69241 0 1 0 0.00681371 0.00551457 -0.000194091 28.9672 8.14779 1.65608 
4691 294 2 12.01 0.14 22.7582 9.00642 6.91252 22.7582 58.1888 6.91252 0 1 0 0.00533965 -0.00422404 -0.00419422 -47.9499 -0.510457 34.9713 
4698 294 3 1.008 0.03 21.9657 8.83409 4.85105 21.9657 58.0164 4.85105 0 1 0 -0.0255941 0.0118194 -0.00774381 8.29709 20.1615 -4.51592 
3206 201 2 12.01 0.11 20.7825 9.16024 1.59256 -77.5822 156.707 1.59256 -2 3 0 -0.00377707 -0.000260869 0.00205282 37.9389 51.3776 -52.4496 
3216 201 3 1.008 0.03 20.4574 9.58212 2.50534 -77.9073 157.129 2.50534 -2 3 0 -0.0133175 0.0217122 0.00279519 -14.4534 3.34626 19.3932 
4683 293 3 1.008 0.03 19.6637 10.9211 6.61713 -29.5186 60.1034 55.7995 -1 1 1 -0.0136487 0.00474752 0.0158081 -37.1245 -29.3458 -3.86124 
4677 293 2 12.01 0.11 18.6996 10.3397 6.87592 -30.4827 59.522 56.0583 -1 1 1 -0.00371696 0.00236065 -0.00103841 43.8062 22.3659 -8.21503 
9156 573 2 12.01 0.14 23.8372 16.6164 1.55457 23.8372 16.6164 1.55457 0 0 0 0.000458142 -0.00305577 -0.00235749 -58.6807 -21.0793 29.702 
9101 569 3 1.008 0.03 16.9156 11.7009 2.29734 -32.2668 60.8833 -46.885 -1 1 -1 0.0126531 -0.000403898 -0.00454599 -17.7211 13.3159 -12.9419 
9099 569 3 1.008 0.03 17.6097 11.4454 3.86678 -31.5726 60.6277 -45.3156 -1 1 -1 -0.0242573 0.0130138 0.0283948 3.88764 -4.73267 -19.2346 
9161 573 3 1.008 0.03 24.0776 16.662 0.57094 24.0776 16.662 0.57094 0 0 0 -0.0111442 -0.0281016 0.023633 19.9429 -6.6536 -49.0352 