ITEM: TIMESTEP
4950000
ITEM: NUMBER OF ATOMS
10479
ITEM: BOX BOUNDS pp pp pp
4.0882558190751794e-01 4.9591174418091420e+01
4.0882558190751794e-01 4.9591174418091420e+01
4.0882558190751794e-01 4.9591174418091420e+01
ITEM: ATOMS id mol type mass q x y z xu yu zu ix iy iz vx vy vz fx fy fz 
2170 136 3 1.008 0.03 6.37282 7.93098 1.4027 104.738 7.93098 50.5851 2 0 1 0.0145765 -0.00753474 -0.0101082 15.7023 14.0902 30.0228 
3124 196 2 12.01 0.14 4.08092 3.37475 1.4809 53.2633 -45.8076 50.6632 1 -1 1 -0.00132609 0.0058364 0.00219551 1.5352 -6.94629 31.8537 
2164 136 2 12.01 0.14 5.80808 7.38684 0.723325 104.173 7.38684 49.9057 2 0 1 0.00707319 0.00689908 -0.0062101 -21.7537 1.8464 -38.4081 
2162 136 1 16 -0.4 4.45626 7.25759 1.03179 102.821 7.25759 50.2141 2 0 1 0.00437237 -0.00584578 -0.000847236 -14.82 4.24536 -22.4466 
2175 136 3 1.008 0.03 4.93672 6.30447 2.71178 103.301 6.30447 51.8941 2 0 1 -0.0380621 -0.0109129 -0.0158316 7.89294 -7.59369 10.7108 
2166 136 2 12.01 0.11 4.22409 7.02015 2.35428 102.589 7.02015 51.5366 2 0 1 0.00392947 0.00209401 0.00297267 -8.82163 8.68 28.7844 
5964 373 3 1.008 0.03 4.74682 4.86341 5.39272 -44.4355 103.228 5.39272 -1 2 0 -0.0195227 0.01142 -0.00678308 12.8195 12.8153 12.9548 
613 39 2 12.01 0.11 7.91084 5.89247 6.0481 57.0932 104.257 104.413 1 2 2 0.00137677 0.00135178 -0.00126118 11.5233 17.6686 -32.4549 
3129 196 3 1.008 0.03 4.03045 4.37257 1.95727 53.2128 -44.8098 51.1396 1 -1 1 0.032292 0.025687 -0.000440107 8.98364 -13.6341 -4.36578 
619 39 3 1.008 0.03 7.28729 5.74277 5.14525 56.4696 104.107 103.51 1 2 2 -0.00919698 -0.00631391 0.000733504 0.844013 -5.28407 14.946 
3130 196 3 1.008 0.03 3.16592 2.87391 1.84639 52.3483 -46.3084 51.0287 1 -1 1 0.00192968 -0.000224576 -0.0295815 9.00682 -0.432251 -8.40132 
3135 196 3 1.008 0.03 4.43298 2.2119 3.79208 53.6153 -46.9704 52.9744 1 -1 1 -0.0144139 0.000666718 0.00189107 -8.27568 1.14448 -6.02103 
5968 373 3 1.008 0.03 1.77077 2.87879 6.47702 -47.4116 101.243 6.47702 -1 2 0 -0.0129752 -0.0074501 0.0023014 -3.30685 -6.59152 10.6602 
620 39 3 1.008 0.03 7.89981 6.93449 6.30508 57.0822 105.299 104.67 1 2 2 -0.00587047 -0.0299153 -0.00294048 -5.01103 11.0167 1.39363 
3134 196 3 1.008 0.03 5.90496 3.15492 3.67249 55.0873 -46.0274 52.8548 1 -1 1 0.00882303 0.00101634 -0.00920538 6.5239 7.72953 8.43918 
3122 196 1 16 -0.4 5.26249 2.6114 1.82938 54.4448 -46.5709 51.0117 1 -1 1 0.0025889 0.00246414 0.00275943 -24.884 18.7138 6.77688 
3126 196 2 12.01 0.11 5.34428 2.36143 3.22076 54.5266 -46.8209 52.4031 1 -1 1 0.00128483 -0.0129071 -0.00363461 -10.9415 17.4676 -11.4288 
3136 196 3 1.008 0.03 5.87454 1.47083 3.28455 55.0569 -47.7115 52.4669 1 -1 1 0.0155824 0.000952798 -0.0186814 21.4838 -26.3318 7.51532 
6678 418 2 12.01 0.11 1.4371 4.89294 4.01 99.8018 -93.4718 53.1924 2 -2 1 -0.00262353 0.00730715 0.00218147 26.7253 -16.1944 -31.945 
2176 136 3 1.008 0.03 4.30595 7.96378 2.92544 102.671 7.96378 52.1078 2 0 1 0.0204347 -0.00477963 0.034159 -0.664098 -10.3533 -2.95538 
2174 136 3 1.008 0.03 3.23345 6.58472 2.49279 101.598 6.58472 51.6751 2 0 1 -0.0265504 -0.0162101 -0.0107367 -0.623504 4.55596 -0.207401 
6687 418 3 1.008 0.03 2.52248 5.00741 4.22015 100.887 -93.3573 53.4025 2 -2 1 0.00291715 0.00860743 0.0118706 -16.8506 8.2451 -2.26072 
2169 136 3 1.008 0.03 6.18467 6.39355 0.607409 104.549 6.39355 49.7898 2 0 1 0.00929794 -0.00113526 0.0124913 12.3654 -11.5729 -2.60265 
2928 183 3 1.008 0.03 1.69854 1.05805 3.51121 50.8809 -48.1243 101.876 1 -1 2 -0.0200286 0.00460004 0.0254494 -5.2836 12.4689 11.7877 
6674 418 1 16 -0.4 1.31986 4.45684 2.61878 99.6846 -93.9079 51.8011 2 -2 1 -0.00662244 0.00154469 0.00335902 -2.79137 12.7523 38.959 
1000 63 3 1.008 0.03 8.05266 6.92563 2.31798 8.05266 56.108 51.5003 0 1 1 0.0329307 -0.00111153 0.00874315 -6.91274 -8.69764 8.61118 
7096 444 3 1.008 0.03 8.06066 2.59816 2.34097 57.243 51.7805 -46.8414 1 1 -1 -0.00749525 0.0321241 -0.0358172 20.8381 15.7272 16.9973 
7097 444 3 1.008 0.03 8.22508 2.28308 4.6409 57.4074 51.4654 -44.5415 1 1 -1 -0.0010405 -0.0325981 0.00279974 -51.8632 5.9288 28.8432 
5965 373 3 1.008 0.03 4.73179 6.38203 6.4375 -44.4506 104.747 6.4375 -1 2 0 0.0013712 0.0131726 0.00967287 -15.6768 0.781456 -12.7914 
6679 418 3 1.008 0.03 0.423213 2.86846 0.850487 98.7879 -95.4962 50.0328 2 -2 1 0.01997 -0.00917853 -0.013872 6.58302 -3.38643 5.43193 
2922 183 3 1.008 0.03 3.40403 0.513619 5.626 52.5864 -48.6687 103.991 1 -1 2 0.00108375 -0.00612585 0.0395651 -13.2515 -3.00392 -10.778 
2346 147 3 1.008 0.03 1.16721 8.5404 1.95271 99.5319 8.5404 51.1351 2 0 1 0.0224356 0.0113715 -0.0134885 9.96937 -1.81169 20.0716 
609 39 1 16 -0.4 7.70983 5.08729 7.13601 56.8922 103.452 105.501 1 2 2 -4.18356e-05 -0.00139581 -0.00392387 -14.3022 -29.948 14.4131 
5957 373 2 12.01 0.11 4.54203 5.30569 6.3911 -44.6403 103.67 6.3911 -1 2 0 -0.00111057 -0.00309648 -0.000972491 -20.5046 6.12611 -21.4929 
5963 373 3 1.008 0.03 5.25351 5.0348 7.1124 -43.9288 103.399 7.1124 -1 2 0 -0.0103295 -8.12826e-06 0.00440418 10.4646 -26.8667 16.8562 
6688 418 3 1.008 0.03 0.83752 5.72539 4.28204 99.2022 -92.6393 53.4644 2 -2 1 0.0365086 -0.026605 -0.0160533 -2.20347 24.9608 -3.92244 
6686 418 3 1.008 0.03 1.12292 4.19313 4.73383 99.4876 -94.1716 53.9162 2 -2 1 0.0192167 -0.00083784 0.0101302 -9.3746 -24.611 5.58814 
5953 373 1 16 -0.4 3.19914 4.85534 6.60185 -45.9832 103.22 6.60185 -1 2 0 0.00146125 -0.00473599 -0.00499459 -11.1829 -2.68736 3.0038 
5966 373 3 1.008 0.03 1.17629 1.46829 7.39978 -48.0061 99.833 7.39978 -1 2 0 -0.00738069 0.00493843 -0.00799872 2.99128 11.3257 2.2701 
5958 373 2 12.01 0.11 1.05487 2.55755 7.2549 -48.1275 100.922 7.2549 -1 2 0 -0.00129085 0.00288228 -0.00428646 -8.04496 -21.8297 -32.0468 
9227 577 3 1.008 0.03 5.17301 2.67919 7.41416 54.3554 -46.5032 56.5965 1 -1 1 -0.0027829 0.00986978 -0.0246139 3.02891 -11.7143 -5.89356 
4176 261 3 1.008 0.03 13.6766 0.424873 6.1876 62.859 -48.7575 104.552 1 -1 2 0.0170709 0.000489723 -0.00375102 -5.03649 -19.3556 -15.2961 
4161 261 1 16 -0.4 13.5929 0.587087 2.73259 62.7753 -48.5953 101.097 1 -1 2 0.00697299 0.00117319 -0.00232886 -20.8419 -56.3749 -16.7608 
621 39 3 1.008 0.03 8.91855 5.68647 5.74693 58.1009 104.051 104.112 1 2 2 -0.00657771 0.0110068 0.00892604 11.717 -0.0399544 -7.11117 
7093 444 2 12.01 0.11 9.95202 3.05323 0.670393 59.1344 52.2356 -48.512 1 1 -1 0.00179044 0.00217948 -0.00765708 13.2559 43.8826 54.552 
4025 252 3 1.008 0.03 15.7071 0.899858 1.59725 15.7071 50.0822 50.7796 0 1 1 0.00855258 -0.00220006 0.0245419 18.572 -20.586 9.59912 
993 63 1 16 -0.4 8.73718 8.32776 3.67875 8.73718 57.5101 52.8611 0 1 1 -0.00132925 -0.00369417 -0.00173331 27.9311 -3.23739 -18.0491 
8133 509 2 12.01 0.11 14.0182 5.23996 1.78824 -35.1641 54.4223 1.78824 -1 1 0 -0.000476899 0.00498184 -0.00817648 -79.4619 -3.84909 -38.7244 
995 63 2 12.01 0.14 8.97295 7.40661 2.59869 8.97295 56.589 51.781 0 1 1 0.00505806 0.000774842 -0.0051057 7.47119 14.8946 -7.58623 
8139 509 3 1.008 0.03 13.512 6.19661 2.10895 -35.6704 55.379 2.10895 -1 1 0 0.00860958 0.00973947 -0.00776142 1.17678 -30.3771 -14.9709 
1005 63 3 1.008 0.03 10.9095 8.25884 4.029 10.9095 57.4412 53.2113 0 1 1 -0.0143976 0.00583585 1.42277e-05 -20.7042 0.0820193 -7.07099 
7090 444 1 16 -0.4 10.0149 2.97522 5.15653 59.1972 52.1576 -44.0258 1 1 -1 -0.00189716 -0.000856083 0.00349258 15.4614 11.4287 -2.71536 
7089 444 1 16 -0.4 10.0366 2.67262 2.06567 59.219 51.855 -47.1167 1 1 -1 -0.00524033 0.00101988 -0.00717048 27.1696 -8.62118 -32.9817 
7103 444 3 1.008 0.03 11.7198 2.0284 4.45288 60.9021 51.2107 -44.7295 1 1 -1 -0.0186251 -0.00932669 -0.0119936 6.62693 -14.4559 -3.47375 
7092 444 2 12.01 0.14 9.14628 2.33021 4.24546 58.3286 51.5126 -44.9369 1 1 -1 0.00452753 0.002323 -0.00460494 48.0462 -43.795 -30.5671 
7102 444 3 1.008 0.03 12.0619 3.37765 5.55264 61.2443 52.56 -43.6297 1 1 -1 0.0230542 0.0354715 -0.000752763 -13.9672 -9.36477 -10.4517 
7094 444 2 12.01 0.11 11.3954 3.00501 4.736 60.5777 52.1874 -44.4463 1 1 -1 -0.0074402 0.00891003 0.00536469 -1.01182 22.5017 17.793 
7091 444 2 12.01 0.14 8.97251 3.03127 2.86096 58.1549 52.2136 -46.3214 1 1 -1 0.00162866 0.000888918 0.00565409 -39.5909 -15.5199 9.26868 
7104 444 3 1.008 0.03 11.5938 3.68934 3.90365 60.7761 52.8717 -45.2787 1 1 -1 -0.03831 -0.0126172 0.00869048 -6.86317 -3.64988 0.205894 
7095 444 3 1.008 0.03 8.84438 4.11254 3.00191 58.0267 53.2949 -46.1804 1 1 -1 0.015892 -0.0136421 -0.00176362 1.56264 -4.06783 -5.78272 
7098 444 3 1.008 0.03 9.40279 1.20945 4.22631 58.5851 50.3918 -44.956 1 1 -1 0.000238161 0.00268098 -0.0114866 -2.98687 41.3273 -10.7769 
8141 509 3 1.008 0.03 14.9342 5.43855 2.07191 -34.2481 54.6209 2.07191 -1 1 0 -0.0146952 0.0273073 0.00113278 73.8175 4.60694 17.4601 
2233 140 3 1.008 0.03 13.9682 8.12318 1.33428 -35.2142 8.12318 1.33428 -1 0 0 0.0303706 0.0174321 0.00896692 -18.9365 -10.7364 2.63144 
8140 509 3 1.008 0.03 13.643 4.40361 2.39724 -35.5393 53.586 2.39724 -1 1 0 0.00106395 -0.0219698 0.00770385 0.595955 5.69667 -3.7953 
4171 261 3 1.008 0.03 12.4925 1.75482 1.38849 61.6749 -47.4275 99.7532 1 -1 2 0.0122679 -0.0087302 0.00368632 0.727637 -4.24487 4.83777 
996 63 2 12.01 0.14 9.49377 8.04074 1.27662 9.49377 57.2231 50.459 0 1 1 -0.000568143 -5.29465e-05 0.00215245 17.8714 9.70649 14.2611 
999 63 3 1.008 0.03 9.6868 6.65479 2.92865 9.6868 55.8371 52.111 0 1 1 0.00186951 0.00351782 -0.024241 -3.18636 -6.70592 -0.523186 
9598 601 8 19 -0.16 15.2862 6.1675 4.52274 -33.8962 55.3498 4.52274 -1 1 0 0.000245306 0.00139818 -0.00135409 -20.9708 -19.6945 1.37958 
4165 261 2 12.01 0.11 12.6403 0.711315 1.68021 61.8227 -48.471 100.045 1 -1 2 0.00303942 0.0079749 -0.000779675 2.41249 -5.65163 -33.1805 
9439 590 3 1.008 0.03 16.0595 6.8623 0.732843 65.2418 6.8623 99.0975 1 0 2 -0.0259965 -0.0017396 -0.00542752 8.92132 -4.84648 -11.9942 
8135 509 3 1.008 0.03 15.4678 3.69915 0.486773 -33.7146 52.8815 0.486773 -1 1 0 0.00959477 0.0356628 0.00486951 0.543723 -10.3636 -12.6859 
7100 444 3 1.008 0.03 9.9395 4.18598 0.67399 59.1219 53.3683 -48.5084 1 1 -1 0.0136767 0.0207377 0.00535112 3.48824 -28.2578 -9.61617 
9597 601 8 19 -0.16 16.2871 7.48089 5.8396 -32.8953 56.6632 5.8396 -1 1 0 0.0075125 -0.00245077 0.00105995 12.7058 -36.5318 -29.2846 
9596 601 7 12.01 0.35 16.4732 6.40533 4.99582 -32.7092 55.5877 4.99582 -1 1 0 -0.00210042 0.00569146 0.00389852 -3.78382 66.115 19.6138 
2240 140 3 1.008 0.03 13.5969 7.69412 3.73122 -35.5854 7.69412 3.73122 -1 0 0 0.00926301 -0.021137 0.0154911 3.52851 11.4065 2.5549 
1002 63 3 1.008 0.03 10.5471 8.34087 1.3149 10.5471 57.5232 50.4972 0 1 1 -0.0224063 -0.003705 0.000295087 -2.72311 -2.08208 7.20942 
9595 601 6 16 -0.53 16.5886 5.06086 7.13476 -32.5938 54.2432 7.13476 -1 1 0 0.00419409 0.0028323 -0.00141686 21.4249 -7.85773 -12.8627 
7438 465 3 1.008 0.03 8.83869 1.07427 7.16438 107.203 99.439 7.16438 2 2 0 0.00658997 0.0104602 0.0257716 5.70865 -14.3877 10.075 
7439 465 3 1.008 0.03 10.396 1.57373 7.40019 108.761 99.9384 7.40019 2 2 0 -0.0155783 0.017201 0.00279006 13.5446 6.98243 11.6996 
9955 625 6 16 -0.53 24.1604 0.55779 4.97109 -25.0219 49.7401 4.97109 -1 1 0 0.00214433 0.00268264 -0.0013177 -2.82978 -22.0012 -20.1517 
7869 492 3 1.008 0.03 19.8296 2.06176 5.04029 -29.3528 51.2441 5.04029 -1 1 0 -0.0124237 0.00244734 -0.0160975 -7.42458 8.05816 -25.3823 
9952 625 4 14.01 -0.66 23.506 0.627886 2.48724 -25.6764 49.8102 2.48724 -1 1 0 0.00018495 -0.004232 -0.012499 2.65345 -28.3983 22.6328 
9601 601 6 16 -0.53 21.1968 5.60527 6.21152 -27.9856 54.7876 6.21152 -1 1 0 -0.00469377 -0.00451547 0.00667368 -29.322 -16.5481 24.9183 
8605 538 3 1.008 0.03 23.9046 7.94732 5.35961 -25.2777 57.1297 5.35961 -1 1 0 0.0156206 0.0205689 0.0117323 -4.61837 -3.26874 -3.37467 
7868 492 3 1.008 0.03 19.5842 2.41733 6.71744 -29.5981 51.5997 6.71744 -1 1 0 0.0302205 0.0017563 -0.0232973 -4.53405 2.70458 4.63514 
9966 625 8 19 -0.16 24.7965 2.68528 1.05575 -24.3858 51.8676 1.05575 -1 1 0 0.00581323 0.00369299 -9.48239e-05 9.99467 8.2378 4.06701 
9960 625 5 32.06 1.02 22.714 1.96361 2.45666 -26.4684 51.146 2.45666 -1 1 0 0.00421248 0.00188249 -0.00137317 -24.6841 38.7767 56.6741 
9965 625 8 19 -0.16 23.0757 4.05042 0.950752 -26.1066 53.2328 0.950752 -1 1 0 0.00415047 -0.000166185 -0.00173427 21.7034 -24.9462 1.94215 
8600 538 3 1.008 0.03 23.92 5.20125 2.98577 -25.2623 54.3836 2.98577 -1 1 0 -0.015789 -0.0161445 -0.00954435 22.4138 -4.35665 -7.21888 
8599 538 3 1.008 0.03 24.1857 6.9633 3.08958 -24.9966 56.1456 3.08958 -1 1 0 -0.0439931 0.0177531 -0.0175163 -3.21285 4.34477 -11.0094 
9599 601 8 19 -0.16 17.1203 6.86996 3.93239 -32.062 56.0523 3.93239 -1 1 0 0.00277652 -0.00136822 -0.0046617 11.2635 -5.64501 8.22875 
8595 538 2 12.01 0.14 23.5659 6.12364 3.39135 -25.6165 55.306 3.39135 -1 1 0 -0.00488353 -0.0021031 -0.0027932 -20.5399 -8.29 20.0449 
9961 625 6 16 -0.53 22.9027 2.91562 3.59467 -26.2796 52.098 3.59467 -1 1 0 4.473e-05 -0.00369551 -0.000358419 13.375 -35.456 -30.7851 
8601 538 3 1.008 0.03 21.5813 7.06912 2.99147 -27.601 56.2515 2.99147 -1 1 0 -0.00630527 -0.00365271 -0.0090117 11.873 -16.2908 10.3409 
8598 538 2 12.01 0.11 20.0875 5.07735 3.20007 -29.0949 54.2597 3.20007 -1 1 0 0.00164737 -0.00315184 -0.00140426 -10.6933 -47.1114 -37.6368 
8607 538 3 1.008 0.03 19.5683 6.01311 3.40999 -29.6141 55.1955 3.40999 -1 1 0 0.0285919 -0.0122039 0.0104202 -3.76287 -3.48144 9.01115 
8594 538 1 16 -0.4 21.4151 5.00972 3.56514 -27.7673 54.1921 3.56514 -1 1 0 0.000783025 -0.000549347 -0.000122092 24.2207 20.8662 24.6403 
9605 601 8 19 -0.16 20.2535 8.2029 5.09816 -28.9289 57.3852 5.09816 -1 1 0 -0.00231709 -0.00646216 -9.93644e-05 16.0114 -14.9134 -23.4557 
10479 690 9 24.305 2 22.3875 4.29282 5.15603 -26.7949 53.4752 5.15603 -1 1 0 0.00252201 0.00504088 0.00380947 2.86267 1.23466 -11.26 
8593 538 1 16 -0.4 23.5102 5.94332 4.79798 -25.6721 55.1257 4.79798 -1 1 0 0.00279847 -0.0043172 0.0048383 -16.0933 -17.0669 -10.0885 
8606 538 3 1.008 0.03 19.7003 4.11306 3.64233 -29.482 53.2954 3.64233 -1 1 0 0.0241554 -0.00674339 -0.00527869 -9.02537 31.6665 -8.69102 
7969 499 1 16 -0.4 22.7424 8.5236 1.13655 -75.6223 -89.8411 50.3189 -2 -2 1 -0.0013699 0.00798497 -0.00733796 -6.31427 -4.70512 45.7429 
8596 538 2 12.01 0.14 22.109 6.08092 2.94311 -27.0733 55.2633 2.94311 -1 1 0 0.00672034 0.0085439 -0.00759795 -0.121445 33.825 -43.7682 
8602 538 3 1.008 0.03 22.1686 5.89354 1.84598 -27.0137 55.0759 1.84598 -1 1 0 -0.00414081 0.0111042 0.00158473 -6.12143 2.32102 15.5873 
8608 538 3 1.008 0.03 20.0855 4.94838 2.09156 -29.0969 54.1307 2.09156 -1 1 0 0.0085607 -0.0305886 -0.00912592 -8.27487 0.899157 16.7771 
9963 625 7 12.01 0.35 23.4873 2.75987 1.04908 -25.6951 51.9422 1.04908 -1 1 0 -0.00146816 -0.00141048 -0.00323801 -43.0543 12.7973 -40.7921 
9962 625 6 16 -0.53 21.33 1.86302 2.04744 -27.8524 51.0454 2.04744 -1 1 0 -0.000350287 0.00229106 0.000715873 10.9158 -9.80434 -2.08772 
4018 252 1 16 -0.4 17.7438 1.09469 1.70988 17.7438 50.277 50.8922 0 1 1 0.00272121 -0.00113107 -0.000104321 1.99821 -20.8297 1.09509 
7857 492 1 16 -0.4 21.5415 2.76751 6.04973 -27.6409 51.9499 6.04973 -1 1 0 -0.00162687 0.00601238 0.00128025 -6.84803 19.338 -14.4977 
7858 492 1 16 -0.4 23.9528 3.70125 6.13262 -25.2296 52.8836 6.13262 -1 1 0 -0.000292683 0.00179802 -0.00712907 -30.5415 -0.415295 11.3383 
8597 538 2 12.01 0.11 24.2456 6.91723 5.48039 -24.9367 56.0996 5.48039 -1 1 0 -0.00842916 -0.00323827 0.00656246 15.2498 5.3936 7.5876 
9594 601 6 16 -0.53 17.0271 3.93307 4.98075 -32.1552 53.1154 4.98075 -1 1 0 -0.00685453 -0.000678567 0.0026065 -5.13223 -36.0403 -21.691 
7867 492 3 1.008 0.03 20.5296 1.04778 6.16811 -28.6527 50.2301 6.16811 -1 1 0 -0.0208556 0.00562846 0.00546897 -4.02359 -14.7869 4.18895 
4022 252 2 12.01 0.11 17.8515 1.24015 3.09502 17.8515 50.4225 52.2774 0 1 1 0.00415226 -0.00447502 0.00358212 -6.67728 57.3605 35.8175 
4031 252 3 1.008 0.03 16.8984 1.73341 3.47032 16.8984 50.9158 52.6527 0 1 1 0.00153527 -0.00692503 -0.0172496 28.5771 -8.83786 -10.8093 
9592 601 4 14.01 -0.66 18.7419 5.52556 5.7372 -30.4405 54.7079 5.7372 -1 1 0 0.00306932 0.000142237 0.000482041 21.1379 2.4718 -25.421 
7860 492 2 12.01 0.14 23.6479 2.90332 7.28563 -25.5345 52.0857 7.28563 -1 1 0 0.00184132 -0.00117733 0.0012431 7.3057 -9.44424 -39.8429 
4030 252 3 1.008 0.03 18.7138 1.94623 3.29804 18.7138 51.1286 52.4804 0 1 1 -0.000266735 -0.00012418 0.0150728 -25.9853 -19.4665 -7.50977 
9593 601 5 32.06 1.02 17.2863 5.00866 5.85308 -31.8961 54.191 5.85308 -1 1 0 -0.0002967 -0.0080885 0.000939614 -30.7914 40.199 42.3568 
7861 492 2 12.01 0.11 20.2921 2.07449 5.9756 -28.8902 51.2568 5.9756 -1 1 0 -0.00334455 -0.00498038 -0.00378159 23.458 -0.99107 27.0282 
9600 601 5 32.06 1.02 19.856 6.01941 6.68779 -29.3264 55.2018 6.68779 -1 1 0 -0.00101452 0.00295816 -0.00350919 38.2014 19.0946 -42.5187 
8603 538 3 1.008 0.03 24.1531 6.66073 6.54013 -25.0293 55.8431 6.54013 -1 1 0 -0.00722173 -0.00333492 -0.0028696 8.52917 3.99713 -0.919877 
9603 601 7 12.01 0.35 19.9505 7.83776 6.30813 -29.2318 57.0201 6.30813 -1 1 0 -0.0128255 0.00196547 -0.00406048 -58.1281 1.09142 25.3757 
9606 601 8 19 -0.16 18.7309 8.35349 6.48056 -30.4515 57.5358 6.48056 -1 1 0 0.000512981 -0.0017242 -0.00368096 12.6451 0.0908062 4.21884 
9604 601 8 19 -0.16 20.75 8.49327 7.11547 -28.4324 57.6756 7.11547 -1 1 0 -0.00607823 0.00507174 -0.00378798 8.92327 3.49416 6.00058 
7866 492 3 1.008 0.03 24.2413 1.97957 7.18545 -24.9411 51.1619 7.18545 -1 1 0 -0.0177121 0.0369312 0.0258588 -10.5121 1.25988 7.23192 
7859 492 2 12.01 0.14 22.1312 2.62256 7.33065 -27.0511 51.8049 7.33065 -1 1 0 0.000603423 -0.00672913 0.00618871 34.7997 -22.2522 10.5829 
7271 455 3 1.008 0.03 5.53171 12.4081 7.31166 54.7141 12.4081 56.494 1 0 1 0.00303672 0.016108 -0.020302 47.048 37.2102 42.0692 
2350 147 3 1.008 0.03 3.39604 10.2263 1.4325 101.761 10.2263 50.6148 2 0 1 -0.0127903 -0.0370438 -0.00168041 -2.09384 6.46433 -4.7358 
10471 682 9 24.305 2 1.04218 16.6318 6.35878 50.2245 16.6318 55.5411 1 0 1 0.00208662 0.0031655 0.00617742 -10.9627 -14.8239 -5.35858 
7192 450 3 1.008 0.03 5.70302 16.7666 1.74737 5.70302 115.131 149.294 0 2 3 -0.0137338 0.0113412 0.0308879 20.4516 1.17917 -10.1356 
7187 450 2 12.01 0.14 6.72089 16.3251 1.66726 6.72089 114.69 149.214 0 2 3 0.000723004 0.00385813 -0.00332479 -42.2611 -37.2528 48.8803 
7193 450 3 1.008 0.03 8.25386 15.7007 3.12289 8.25386 114.065 150.67 0 2 3 0.01527 -0.00957491 -0.00909029 4.12983 -5.21796 2.63047 
2900 182 2 12.01 0.14 1.55674 13.9235 5.48934 50.7391 13.9235 54.6717 1 0 1 -0.000933524 0.00171354 0.00339678 5.79382 -31.8576 0.785077 
7186 450 1 16 -0.4 6.42452 16.089 4.16009 6.42452 114.454 151.707 0 2 3 0.00226614 -0.002129 -0.00123023 4.39064 -37.8045 -1.10313 
6576 411 3 1.008 0.03 2.55797 13.8665 1.94494 51.7403 13.8665 51.1273 1 0 1 -0.00556796 -0.0183598 -0.0364753 2.64515 -15.2174 0.935501 
7188 450 2 12.01 0.14 7.37063 16.3173 3.09755 7.37063 114.682 150.645 0 2 3 -0.00116759 -0.0022985 0.0105726 -25.5735 4.39238 -13.2969 
6566 411 2 12.01 0.11 3.08031 14.8018 1.88885 52.2627 14.8018 51.0712 1 0 1 0.0010748 -0.00258212 0.000818447 -12.0332 2.6702 -57.5464 
2906 182 3 1.008 0.03 2.32613 13.9285 4.75065 51.5085 13.9285 53.933 1 0 1 0.0279155 0.00762256 0.00659202 10.22 4.88101 -12.6471 
4209 264 1 16 -0.4 5.34921 11.3857 4.69682 5.34921 -86.979 -44.4855 0 -2 -1 4.77929e-05 0.00649726 -0.0106799 2.14724 12.0949 11.8525 
6575 411 3 1.008 0.03 4.14107 14.6849 2.06089 53.3234 14.6849 51.2432 1 0 1 0.020464 -0.0122342 0.00639207 4.5089 0.072705 11.0799 
6562 411 1 16 -0.4 2.34903 15.6601 2.68698 51.5314 15.6601 51.8693 1 0 1 0.00170671 -0.00224977 0.00308609 -10.9212 24.8876 25.0683 
4213 264 2 12.01 0.11 4.61602 11.8088 3.56445 4.61602 -86.5559 -45.6179 0 -2 -1 -0.00499329 0.00180391 0.000485817 -41.667 -16.8797 -34.8506 
2898 182 1 16 -0.4 1.90172 14.8606 6.47265 51.0841 14.8606 55.655 1 0 1 0.00217172 -0.00205081 -0.00591095 -18.8024 38.3571 3.35478 
4221 264 3 1.008 0.03 5.15845 11.7633 2.60139 5.15845 -86.6014 -46.581 0 -2 -1 -0.0153474 -0.0170125 -0.00965268 4.11024 10.571 13.5754 
2905 182 3 1.008 0.03 1.52627 12.8593 5.786 50.7086 12.8593 54.9684 1 0 1 0.00796073 0.00292088 -0.0138914 -1.47288 10.9417 7.55637 
7200 450 3 1.008 0.03 7.01175 14.3836 5.36381 7.01175 112.748 152.911 0 2 3 -0.0244188 -0.00397914 -0.00991503 5.55559 10.1036 -7.74548 
2910 182 3 1.008 0.03 3.4489 13.676 7.02737 52.6313 13.676 56.2097 1 0 1 0.00886567 0.0296565 -0.0248576 7.85201 -10.5952 -4.37041 
4220 264 3 1.008 0.03 4.09057 12.7764 3.72721 4.09057 -85.5883 -45.4551 0 -2 -1 -0.0151017 -0.025359 0.0160451 17.1471 -10.0684 -2.27836 
7190 450 2 12.01 0.11 6.3488 14.6673 4.5369 6.3488 113.032 152.084 0 2 3 0.00370568 -0.00108495 -0.00250423 14.2004 10.9047 -8.58482 
7198 450 3 1.008 0.03 5.39176 14.3892 4.9735 5.39176 112.754 152.521 0 2 3 -0.00552991 -0.0101835 -0.0225905 -6.29264 3.49381 -8.68045 
2345 147 3 1.008 0.03 1.92824 9.42895 3.44079 100.293 9.42895 52.6231 2 0 1 -0.023834 0.021573 -0.0184684 3.59656 1.39878 -29.8129 
2340 147 2 12.01 0.14 1.21146 9.45193 2.57893 99.5762 9.45193 51.7613 2 0 1 0.0105391 -0.000689848 -0.00129501 -22.5595 -31.3164 26.4929 
4219 264 3 1.008 0.03 3.73413 11.1428 3.311 3.73413 -87.2219 -45.8714 0 -2 -1 0.00156425 -0.00712597 0.0128349 27.3666 11.4368 20.6153 
4215 264 3 1.008 0.03 6.05677 9.62774 3.88775 6.05677 -88.737 -45.2946 0 -2 -1 -0.00923486 0.00706161 -0.0033324 -1.71778 4.84316 10.1466 
4211 264 2 12.01 0.14 6.4169 10.4691 4.50667 6.4169 -87.8956 -44.6757 0 -2 -1 -0.00804154 0.00506956 0.00548796 -12.3064 -1.9797 -39.5679 
7199 450 3 1.008 0.03 6.63119 13.9982 3.68917 6.63119 112.363 151.236 0 2 3 0.00492155 -0.021621 -0.022422 -11.4469 8.4264 12.1559 
4217 264 3 1.008 0.03 6.0486 10.1314 6.52765 6.0486 -88.2333 -42.6547 0 -2 -1 -0.03051 -0.0136389 -0.0273961 11.581 4.82156 11.2661 
4218 264 3 1.008 0.03 6.90381 8.89202 5.67426 6.90381 -89.4727 -43.5081 0 -2 -1 0.00493485 -0.00624597 -0.00696553 10.0867 16.2115 12.3226 
4212 264 2 12.01 0.14 6.88723 9.99531 5.84011 6.88723 -88.3694 -43.3422 0 -2 -1 -0.00379923 -0.00306367 0.00743619 -10.8227 -46.1411 -2.49082 
4216 264 3 1.008 0.03 7.23225 10.8391 3.89481 7.23225 -87.5256 -45.2875 0 -2 -1 -0.00113547 -0.00167352 -0.00597644 2.86884 9.82505 2.02323 
4766 298 3 1.008 0.03 8.22943 11.0086 1.3049 57.4118 11.0086 1.3049 1 0 0 0.0041463 -0.0067779 -0.00495504 -0.933668 -3.78231 7.10703 
4210 264 1 16 -0.4 8.17393 10.4999 6.1886 8.17393 -87.8648 -42.9937 0 -2 -1 0.00246318 0.00650587 0.000813564 -1.74721 11.2963 2.48759 
2338 147 1 16 -0.4 1.33124 10.4707 1.63758 99.6959 10.4707 50.8199 2 0 1 -0.00273607 0.00660112 -0.000626064 6.57587 16.0162 -1.94904 
2342 147 2 12.01 0.11 2.48002 10.2614 0.836005 100.845 10.2614 50.0184 2 0 1 -0.00530875 0.000660648 0.00166769 -3.96074 -18.1924 -0.257382 
7185 450 1 16 -0.4 6.57756 14.986 1.17656 6.57756 113.351 148.724 0 2 3 -0.00452743 0.00205626 -0.00107576 17.6684 2.13464 11.6233 
6574 411 3 1.008 0.03 2.96164 15.1409 0.819603 52.144 15.1409 50.002 1 0 1 -0.0034561 0.00447645 -0.0285898 4.6091 -8.11653 23.2834 
10124 636 8 19 -0.16 2.04562 10.8537 7.30175 2.04562 10.8537 56.4841 0 0 1 -0.000167086 0.000474513 -0.00393136 23.4613 30.6392 -21.9986 
2435 153 2 12.01 0.14 15.8446 12.207 6.85404 114.209 61.3894 6.85404 2 1 0 0.0059518 1.40376e-05 0.0017529 -6.67399 17.503 29.8464 
997 63 2 12.01 0.11 10.0029 8.90764 4.06384 10.0029 58.09 53.2462 0 1 1 0.00422346 -0.0051092 -0.0047546 20.2471 -2.45341 26.0301 
8103 507 3 1.008 0.03 15.5557 13.9297 1.07038 64.738 13.9297 99.4351 1 0 2 -0.00525735 0.00407965 -0.00627122 22.0199 -3.81488 7.17238 
1001 63 3 1.008 0.03 8.94975 8.91063 0.987851 8.94975 58.093 50.1702 0 1 1 0.0196397 0.0285421 0.00324891 -11.1923 12.0113 3.46458 
1003 63 3 1.008 0.03 10.3199 9.81755 3.52436 10.3199 58.9999 52.7067 0 1 1 0.00368851 -0.00515166 0.00279276 -12.3403 -6.84521 4.50372 
1004 63 3 1.008 0.03 9.98395 9.09424 5.15656 9.98395 58.2766 54.3389 0 1 1 -0.00654921 0.00806566 0.0281028 -4.5117 6.2792 -16.1553 
8100 507 2 12.01 0.14 14.3531 15.6904 0.718636 63.5354 15.6904 99.0833 1 0 2 0.00412297 0.0036817 0.000475666 21.3471 -30.7485 -31.3905 
2440 153 3 1.008 0.03 14.8752 11.7986 6.56838 113.24 60.9809 6.56838 2 1 0 0.00518952 0.0153764 0.0180834 -0.519629 -2.33538 0.989246 
2446 153 3 1.008 0.03 14.8025 16.2372 5.94064 113.167 65.4195 5.94064 2 1 0 0.00334053 0.000513378 -0.00635977 4.37957 10.6136 -7.61887 
4768 298 3 1.008 0.03 8.87919 12.6102 1.41834 58.0615 12.6102 1.41834 1 0 0 -0.000824751 0.00396134 -0.0265205 0.0434717 15.4309 10.4517 
2438 153 2 12.01 0.11 15.077 15.7604 6.86464 113.442 64.9428 6.86464 2 1 0 0.00594763 -0.00317962 -0.00876083 -3.10924 -8.16165 11.0137 
3966 248 3 1.008 0.03 9.17432 12.8996 5.4575 58.3567 12.8996 -43.7249 1 0 -1 0.00664072 0.0095605 0.00285688 8.33763 -5.23071 -10.6324 
2227 140 2 12.01 0.14 14.1286 10.0238 0.512463 -35.0538 10.0238 0.512463 -1 0 0 0.000216248 0.00659341 -0.00342073 -25.9826 15.6355 -18.4774 
2228 140 2 12.01 0.14 14.2272 9.10094 1.67185 -34.9551 9.10094 1.67185 -1 0 0 -0.0105735 0.00307877 -0.00464159 49.9915 -15.1281 3.95054 
3956 248 2 12.01 0.14 10.5207 14.8311 4.49578 59.703 14.8311 -44.6866 1 0 -1 -1.31522e-05 -0.00547472 -0.00262835 33.9828 19.2027 9.68646 
3962 248 3 1.008 0.03 10.235 14.5736 3.46797 59.4174 14.5736 -45.7144 1 0 -1 0.0145142 -0.0114199 -0.00830583 5.71652 -12.6342 6.3904 
3960 248 3 1.008 0.03 12.2914 15.903 5.29116 61.4738 15.903 -43.8912 1 0 -1 0.0161799 0.0148515 0.00946737 -4.53226 9.03456 -5.38013 
3954 248 1 16 -0.4 11.0137 13.7709 5.38067 60.1961 13.7709 -43.8017 1 0 -1 0.0115352 0.00752209 0.00951474 -18.8917 1.19815 -23.9909 
8108 507 3 1.008 0.03 13.0943 12.5192 3.23073 62.2766 12.5192 101.595 1 0 2 0.00552018 0.0221547 0.00192455 0.457323 2.42723 10.7417 
8107 507 3 1.008 0.03 13.8598 14.0911 3.45342 63.0422 14.0911 101.818 1 0 2 -0.0108531 0.0118517 -0.00708677 -3.39493 30.4695 23.1573 
8101 507 2 12.01 0.11 13.9023 13.1923 2.94835 63.0846 13.1923 101.313 1 0 2 -0.00676295 -0.00252065 -0.00134382 -11.9968 -14.2993 -22.3561 
4758 298 2 12.01 0.11 9.14037 11.5932 1.22953 58.3227 11.5932 1.22953 1 0 0 -0.0015844 0.000464107 0.000758651 0.283443 -7.40124 -46.0256 
4767 298 3 1.008 0.03 9.93885 11.2232 1.84343 59.1212 11.2232 1.84343 1 0 0 0.0210247 0.0240383 -0.0155053 1.76558 -1.74993 15.2734 
3955 248 2 12.01 0.14 11.6685 15.9272 4.38326 60.8508 15.9272 -44.7991 1 0 -1 -0.00790121 0.00210101 -0.0026085 -9.54424 -38.736 -25.9722 
8109 507 3 1.008 0.03 14.8215 12.7324 3.19421 64.0039 12.7324 101.559 1 0 2 0.00926219 0.00460587 -0.0166605 20.8096 -11.6804 -2.12864 
8097 507 1 16 -0.4 13.6567 13.4245 1.58644 62.8391 13.4245 99.9511 1 0 2 -0.00308912 0.000556288 -0.00233378 -15.2364 -2.97632 -18.7135 
3959 248 3 1.008 0.03 12.3253 15.6213 3.50146 61.5077 15.6213 -45.6809 1 0 -1 0.00222057 0.00884191 -0.00690979 -18.4823 8.43767 29.4978 
2226 140 1 16 -0.4 13.6194 9.56486 2.8532 -35.563 9.56486 2.8532 -1 0 0 -0.00571289 -0.0019107 -0.00697941 -17.7875 15.7595 -9.26158 
2238 140 3 1.008 0.03 14.931 8.78946 4.17533 -34.2514 8.78946 4.17533 -1 0 0 0.00242698 -0.00862893 -0.00537098 7.3011 -2.32778 1.84776 
2239 140 3 1.008 0.03 13.3306 9.03194 4.89081 -35.8517 9.03194 4.89081 -1 0 0 0.00518681 0.0197416 -0.00265737 11.2519 -1.71491 -27.5676 
2230 140 2 12.01 0.11 13.8775 8.74331 3.94177 -35.3049 8.74331 3.94177 -1 0 0 -0.000709622 -0.000813078 -0.00562394 -14.384 -18.7325 38.1384 
3967 248 3 1.008 0.03 10.2989 12.2062 4.19384 59.4813 12.2062 -44.9885 1 0 -1 0.00240748 -4.02266e-05 -0.00552439 -3.16772 -2.38014 19.6698 
8098 507 1 16 -0.4 15.2954 16.357 1.51596 64.4778 16.357 99.8807 1 0 2 0.00625718 -0.00105154 -0.00156973 2.62057 14.7225 11.329 
3958 248 2 12.01 0.11 10.2142 12.5844 5.24091 59.3966 12.5844 -43.9414 1 0 -1 0.0036018 0.00229799 -0.00208028 -17.473 33.5427 -9.06685 
3968 248 3 1.008 0.03 10.3594 11.8512 6.01588 59.5417 11.8512 -43.1665 1 0 -1 -0.0482745 0.0108138 -0.00647045 15.8911 -8.77866 -1.27684 
2234 140 3 1.008 0.03 15.2921 8.92208 1.84038 -33.8902 8.92208 1.84038 -1 0 0 0.0272351 -0.00193406 0.00857705 -0.508152 8.98255 5.86108 
3961 248 3 1.008 0.03 9.61239 15.2929 4.88903 58.7947 15.2929 -44.2933 1 0 -1 0.0144949 0.0264056 -0.022457 3.38477 -3.56702 8.45922 
2231 140 3 1.008 0.03 14.2964 11.0849 0.701688 -34.886 11.0849 0.701688 -1 0 0 0.00283514 0.0165641 0.0216817 8.33694 -4.39711 8.48546 
2434 153 1 16 -0.4 14.948 14.3815 6.62468 113.313 63.5638 6.62468 2 1 0 -0.00505091 0.000558198 0.00129216 5.72612 2.78669 -4.7435 
2603 163 3 1.008 0.03 16.7022 14.0257 4.29706 16.7022 -84.339 102.662 0 -2 2 -0.00642396 0.00150556 -0.0322184 -3.93628 3.96671 4.6952 
2448 153 3 1.008 0.03 16.1064 15.9768 7.17636 114.471 65.1591 7.17636 2 1 0 -0.0108893 -0.0219028 0.00987102 -4.97117 8.74153 -4.14728 
2439 153 3 1.008 0.03 16.4906 12.1853 5.96981 114.855 61.3676 5.96981 2 1 0 0.0161379 0.00554864 -0.0211439 -4.03902 10.1249 4.78441 
4223 264 3 1.008 0.03 8.91523 8.93486 7.33106 8.91523 -89.4298 -41.8513 0 -2 -1 0.0126392 0.0097326 0.00410354 -6.52317 26.3631 7.45486 
2604 163 3 1.008 0.03 16.4133 15.4955 3.31881 16.4133 -82.8692 101.684 0 -2 2 0.00780039 0.0130591 0.0336994 -2.3976 1.93571 15.9231 
8106 507 3 1.008 0.03 13.3323 15.8757 0.920755 62.5146 15.8757 99.2855 1 0 2 -0.0240745 0.00441479 -0.00531256 -20.0031 14.8585 4.90934 
8099 507 2 12.01 0.14 14.5655 14.1544 0.777446 63.7478 14.1544 99.1421 1 0 2 0.00481173 -0.00564622 0.00412637 -1.80401 -0.193514 1.62715 
4214 264 2 12.01 0.11 8.67296 10.0329 7.43203 8.67296 -88.3318 -41.7503 0 -2 -1 -0.0048522 -0.00663594 0.00328172 -6.19079 -28.2999 -21.878 
5848 366 3 1.008 0.03 20.173 15.9504 0.484958 20.173 15.9504 -48.6974 0 0 -1 -0.0084468 0.0036682 -0.0124403 30.7836 -21.0904 -5.88952 
2605 163 3 1.008 0.03 17.9227 14.7062 3.27311 17.9227 -83.6585 101.638 0 -2 2 0.00523417 -0.0147899 0.00461454 -10.8246 6.89236 14.1987 
2607 163 3 1.008 0.03 22.2143 14.2357 3.61404 22.2143 -84.129 101.979 0 -2 2 -0.0126399 0.00358668 0.00765304 15.8796 -8.40158 4.78408 