ITEM: TIMESTEP
600000
ITEM: NUMBER OF ATOMS
10479
ITEM: BOX BOUNDS pp pp pp
4.0882558190751794e-01 4.9591174418091420e+01
4.0882558190751794e-01 4.9591174418091420e+01
4.0882558190751794e-01 4.9591174418091420e+01
ITEM: ATOMS id mol type mass q x y z xu yu zu ix iy iz vx vy vz fx fy fz 
2463 154 3 1.008 0.03 4.06421 2.16866 4.53128 4.06421 2.16866 102.896 0 0 2 -0.018388 -0.0012909 -0.00956867 -0.354801 -3.09886 8.92256 
7529 471 3 1.008 0.03 1.54773 6.02045 3.96864 -47.6346 6.02045 3.96864 -1 0 0 0.0103443 -0.0100226 0.0181506 15.1785 -18.3145 -1.56165 
2454 154 2 12.01 0.11 4.25067 2.90802 3.76793 4.25067 2.90802 102.133 0 0 2 -0.00274882 0.00669407 -6.58199e-05 36.0118 10.3709 -9.33908 
2464 154 3 1.008 0.03 4.75871 2.39277 2.90849 4.75871 2.39277 101.273 0 0 2 -0.00635468 0.00987783 -0.0161653 -8.57307 10.7693 17.7124 
2462 154 3 1.008 0.03 4.92685 3.72894 4.17696 4.92685 3.72894 102.542 0 0 2 0.0093978 -0.00496621 -0.0153433 -18.5003 -26.8354 -12.5934 
2452 154 2 12.01 0.14 1.95852 2.62351 3.19872 1.95852 2.62351 101.563 0 0 2 -0.000955662 -0.00157365 0.00335381 17.4114 -19.5527 -17.1336 
2458 154 3 1.008 0.03 2.30239 1.66641 2.74336 2.30239 1.66641 101.108 0 0 2 0.00811307 -0.0231376 -0.0011132 -7.55128 16.4309 -2.51023 
2450 154 1 16 -0.4 3.07056 3.50282 3.32185 3.07056 3.50282 101.687 0 0 2 -0.00328641 0.00646045 0.00371985 -15.118 10.5442 8.36524 
4234 265 3 1.008 0.03 7.95727 6.94513 5.39927 7.95727 6.94513 -43.7831 0 0 -1 -0.00847912 -0.00687166 0.0194856 10.8253 27.2602 1.93878 
2449 154 1 16 -0.4 1.28766 3.78718 1.10289 1.28766 3.78718 99.4676 0 0 2 -0.0140103 -0.00482807 -0.00450421 20.9104 -8.8337 -1.54383 
4226 265 1 16 -0.4 7.06826 8.55073 4.49056 7.06826 8.55073 -44.6918 0 0 -1 -0.00118372 0.00844506 0.00774308 20.1316 -11.4553 19.1036 
4240 265 3 1.008 0.03 7.66668 6.98143 3.21382 7.66668 6.98143 -45.9685 0 0 -1 0.000636268 0.00491483 -0.0134142 1.59053 -12.9251 4.61566 
4230 265 2 12.01 0.11 7.49702 8.03977 3.26039 7.49702 8.03977 -45.922 0 0 -1 0.00958749 0.00868317 0.00532862 -52.0618 0.976292 -26.1347 
4228 265 2 12.01 0.14 7.99336 8.07489 5.47427 7.99336 8.07489 -43.7081 0 0 -1 0.00311557 -0.00582264 0.0114914 -55.2503 -30.8942 -11.0701 
7524 471 2 12.01 0.14 0.977116 6.88588 3.75927 -48.2052 6.88588 3.75927 -1 0 0 -0.00293171 -0.0110567 -0.00374167 -32.8454 -3.14793 -67.4323 
2457 154 3 1.008 0.03 1.4552 2.28178 4.10094 1.4552 2.28178 102.466 0 0 2 0.00864644 -0.00233933 0.000453675 10.0876 7.53932 11.0336 
2455 154 3 1.008 0.03 0.443748 4.21187 2.94522 0.443748 4.21187 101.31 0 0 2 -0.00902272 0.0287471 0.000904161 10.9381 -23.1621 -7.98852 
2451 154 2 12.01 0.14 0.905009 3.34792 2.3849 0.905009 3.34792 100.75 0 0 2 0.000642263 0.000293312 -0.000787885 0.948616 39.1591 18.8845 
1831 115 3 1.008 0.03 5.58368 4.20303 6.6624 5.58368 4.20303 -140.885 0 0 -3 0.000582731 -0.019056 0.00271082 -29.1742 11.557 -4.47614 
5316 333 2 12.01 0.14 2.99883 6.5191 7.24926 52.1812 104.884 56.4316 1 2 1 -0.000941743 0.000336001 -0.000957136 -57.0571 -0.0519193 1.16456 
5315 333 2 12.01 0.14 2.0798 5.22868 7.4216 51.2622 103.593 56.604 1 2 1 0.000852663 0.000133393 -4.13956e-05 29.2727 31.7551 -49.7188 
7535 471 3 1.008 0.03 1.74713 7.72146 1.45451 -47.4352 7.72146 1.45451 -1 0 0 -0.0286181 0.0121065 0.0152304 -10.0819 5.8365 -9.75377 
5319 333 3 1.008 0.03 1.75543 4.94598 6.35386 50.9378 103.311 55.5362 1 2 1 -0.0254322 -0.0307263 0.000547038 11.0825 -2.81927 41.8698 
5322 333 3 1.008 0.03 3.33152 6.73115 6.24276 52.5139 105.096 55.4251 1 2 1 0.00110402 -0.0239958 0.0180279 -8.41371 -9.57687 -12.9233 
4227 265 2 12.01 0.14 7.43491 8.3734 6.86924 7.43491 8.3734 -42.3131 0 0 -1 -0.00101363 -0.00178301 -0.00153227 16.693 35.0867 30.0868 
1828 115 2 12.01 0.14 7.33043 3.60265 5.74154 7.33043 3.60265 -141.806 0 0 -3 0.000602718 0.00573048 0.00699371 17.7535 30.0987 -5.70747 
1834 115 3 1.008 0.03 7.07355 4.36303 4.95967 7.07355 4.36303 -142.587 0 0 -3 0.0143057 -0.00701836 0.000120318 13.9841 -16.458 8.09923 
534 34 2 12.01 0.11 8.45023 0.79596 1.36538 106.815 99.1607 -47.817 2 2 -1 0.00258013 0.00819501 -0.00430698 -27.2019 -26.1473 -12.8368 
7527 471 3 1.008 0.03 0.755487 7.44519 5.62995 -48.4269 7.44519 5.62995 -1 0 0 0.0125237 -0.00496139 0.00329814 -9.35581 6.07411 20.5429 
4238 265 3 1.008 0.03 6.59816 8.20837 2.63207 6.59816 8.20837 -46.5503 0 0 -1 -0.00805219 -0.00404284 -0.00317415 15.3313 -2.0974 0.956601 
4239 265 3 1.008 0.03 8.3086 8.51726 2.78672 8.3086 8.51726 -46.3956 0 0 -1 0.00746509 0.0196226 0.00891326 20.3772 16.6423 -4.05282 
7534 471 3 1.008 0.03 3.00883 6.86418 2.22085 -46.1735 6.86418 2.22085 -1 0 0 0.0115704 -0.0144023 0.00331882 4.11674 17.3082 -1.89241 
7522 471 1 16 -0.4 1.88326 7.96931 3.51368 -47.2991 7.96931 3.51368 -1 0 0 -0.00575799 -0.00126122 -0.00285924 -13.2088 1.09796 6.58433 
7526 471 2 12.01 0.11 2.47251 7.83711 2.23408 -46.7098 7.83711 2.23408 -1 0 0 0.00252881 -0.00424484 0.00820212 7.41379 -27.5639 10.5616 
1827 115 2 12.01 0.14 6.57005 4.06602 6.98435 6.57005 4.06602 -140.563 0 0 -3 -0.00264721 -0.00503603 -0.003737 4.03742 -39.3161 21.8214 
5323 333 3 1.008 0.03 2.55363 2.50545 7.35505 51.736 100.87 56.5374 1 2 1 0.0152457 -0.00731106 0.00298678 -14.0926 12.0742 33.6441 
6632 415 3 1.008 0.03 4.96809 5.11526 0.580413 -44.2143 54.2976 0.580413 -1 1 0 0.0289878 -0.0322732 0.00954825 -4.99477 -6.25494 6.21921 
4232 265 3 1.008 0.03 6.38664 8.16749 7.01739 6.38664 8.16749 -42.165 0 0 -1 -0.00724622 0.00686273 0.00219333 -6.99817 -11.0766 -4.70157 
1833 115 3 1.008 0.03 6.95801 2.65662 5.46033 6.95801 2.65662 -142.087 0 0 -3 -0.0485723 0.000920119 -0.0129248 -11.4387 -18.9592 -12.5056 
542 34 3 1.008 0.03 7.97657 1.6408 0.804662 106.341 100.006 -48.3777 2 2 -1 0.0207695 0.0303164 0.0124763 1.3058 -13.9557 16.373 
1832 115 3 1.008 0.03 6.91452 4.94626 7.42976 6.91452 4.94626 -140.117 0 0 -3 0.0170673 0.00213072 -0.000209256 14.6334 29.8296 3.1591 
4464 279 3 1.008 0.03 3.55342 1.08773 0.525719 52.7358 50.2701 49.7081 1 1 1 0.0218788 -0.00431602 -0.00281482 0.883777 1.46513 9.49386 
1272 80 3 1.008 0.03 16.045 2.48078 5.16708 16.045 100.845 5.16708 0 2 0 0.00496492 0.0167004 -0.00249819 19.8254 2.79441 20.3386 
1265 80 1 16 -0.4 16.4036 1.25784 6.71372 16.4036 99.6225 6.71372 0 2 0 0.00292782 0.00732823 -0.00789229 6.34887 -33.5684 0.0675984 
8925 558 3 1.008 0.03 10.6589 6.003 3.35504 59.8413 55.1853 3.35504 1 1 0 0.00234163 -0.00692747 0.0202132 -22.2568 -17.122 -7.96354 
2396 150 3 1.008 0.03 9.7516 0.668832 6.37936 -88.6131 49.8512 55.5617 -2 1 1 0.0174471 -0.012253 -0.0277404 -0.450416 -4.42896 5.04843 
9516 595 8 19 -0.16 14.0967 7.26162 0.961422 14.0967 56.444 50.1438 0 1 1 -0.00234828 0.00429377 -0.00213441 -2.37046 14.2862 8.37156 
1197 75 3 1.008 0.03 12.1298 2.84013 3.59463 -37.0525 2.84013 3.59463 -1 0 0 -0.000771305 -0.0258809 -0.0336001 8.25729 8.79193 23.3342 
1189 75 2 12.01 0.11 12.1143 2.63824 2.56745 -37.0681 2.63824 2.56745 -1 0 0 0.00299476 -0.00522446 0.00281577 -41.5439 -1.62168 -10.4958 
1826 115 1 16 -0.4 8.74166 3.41598 5.9696 8.74166 3.41598 -141.577 0 0 -3 0.00310628 -0.00398377 0.00321456 -16.9858 -7.71484 23.0908 
1840 115 3 1.008 0.03 10.6371 3.22289 5.10302 10.6371 3.22289 -142.444 0 0 -3 -0.00431406 0.0113974 -0.0127897 -34.4364 20.6015 -0.889915 
1830 115 2 12.01 0.11 9.64467 3.78159 4.97474 9.64467 3.78159 -142.572 0 0 -3 -0.00218946 -0.00299408 0.000406604 27.4598 7.25726 -0.57433 
1839 115 3 1.008 0.03 9.7893 4.8688 5.18952 9.7893 4.8688 -142.358 0 0 -3 0.00546087 -0.00344112 -0.0124945 2.91151 -17.0278 -14.3333 
1838 115 3 1.008 0.03 9.26027 3.59843 3.96136 9.26027 3.59843 -143.586 0 0 -3 0.0170666 -0.00289871 -0.0414775 1.84561 2.9316 4.85562 
1185 75 1 16 -0.4 11.8207 3.77466 1.8135 -37.3616 3.77466 1.8135 -1 0 0 0.00325121 -0.00248271 -0.00440796 -22.6331 18.5123 35.4592 
9513 595 7 12.01 0.35 15.1425 6.88199 1.67528 15.1425 56.0643 50.8576 0 1 1 -0.0117067 -0.00112348 0.00923001 7.13815 -33.6488 7.62769 
1193 75 3 1.008 0.03 11.5336 5.7903 0.453162 -37.6488 5.7903 0.453162 -1 0 0 0.0169882 0.0151932 -0.00884905 -12.4665 0.595302 -2.30165 
9515 595 8 19 -0.16 15.482 7.78656 2.59985 15.482 56.9689 51.7822 0 1 1 0.00446547 0.000272275 -0.00359559 -10.1751 4.75151 -16.8419 
1286 81 2 12.01 0.11 16.4318 1.85335 0.771307 16.4318 51.0357 0.771307 0 1 0 -0.0050791 0.00303915 -0.000728754 -25.6591 5.5493 -22.8703 
1196 75 3 1.008 0.03 13.005 2.17875 2.27291 -36.1773 2.17875 2.27291 -1 0 0 -0.00381676 0.0205589 -0.0168293 25.6651 -20.7054 -4.78302 
1187 75 2 12.01 0.14 12.4148 3.82598 0.597147 -36.7675 3.82598 0.597147 -1 0 0 -0.000986237 -0.00626259 -0.00740564 7.92725 -31.5835 -36.5973 
544 34 3 1.008 0.03 9.285 1.15853 1.89045 107.65 99.5232 -47.2919 2 2 -1 0.00517215 -0.0221444 -0.0370683 22.1642 10.7539 6.42451 
9514 595 8 19 -0.16 14.7147 5.82815 2.37004 14.7147 55.0105 51.5524 0 1 1 -0.000486709 0.0057638 0.00269995 1.93928 6.41288 -4.40419 
4403 276 2 12.01 0.14 14.5279 6.31545 6.11359 14.5279 55.4978 153.661 0 1 3 -0.00622863 -0.00496064 -0.00483874 -49.3491 -27.4997 1.74894 
4407 276 3 1.008 0.03 15.3839 6.43801 5.47785 15.3839 55.6204 153.025 0 1 3 -0.00743018 0.00644534 -0.0214985 14.4823 4.55072 0.294913 
1191 75 3 1.008 0.03 13.4609 3.89146 0.748664 -35.7215 3.89146 0.748664 -1 0 0 0.00956345 -0.00965023 -0.0063251 20.7097 17.8961 3.95596 
4408 276 3 1.008 0.03 13.6422 6.76708 5.58164 13.6422 55.9494 153.129 0 1 3 0.0232289 -0.0173415 -0.012418 24.9977 -10.5923 10.7141 
4413 276 3 1.008 0.03 13.0767 4.36793 4.89048 13.0767 53.5503 152.438 0 1 3 0.0126695 0.0279439 0.00350888 -3.93018 -3.22151 -11.2764 
8917 558 2 12.01 0.11 11.486 6.64008 3.25805 60.6684 55.8224 3.25805 1 1 0 -0.00198296 0.00582051 -0.0101781 42.6973 35.6921 40.5917 
8923 558 3 1.008 0.03 12.0714 6.4228 2.37351 61.2537 55.6051 2.37351 1 1 0 -0.0188461 0.0196211 0.0164195 6.55575 -6.78917 4.17639 
8924 558 3 1.008 0.03 12.0572 6.47994 4.23705 61.2395 55.6623 4.23705 1 1 0 0.0205606 -0.00211022 0.0092502 -14.7739 5.80747 -38.9237 
6874 430 3 1.008 0.03 12.6922 0.626685 7.03751 111.057 49.809 7.03751 2 1 0 0.00807802 0.00363996 0.0142222 -11.445 12.3518 3.61502 
4405 276 2 12.01 0.11 14.029 4.03014 5.26937 14.029 53.2125 152.816 0 1 3 0.00279557 -0.00547499 -0.00497704 2.83474 20.5697 8.64088 
4401 276 1 16 -0.4 14.2559 4.89445 6.37607 14.2559 54.0768 153.923 0 1 3 0.00242242 -0.00431855 -0.00307687 8.56821 19.4075 -1.98346 
4411 276 3 1.008 0.03 14.8272 4.08704 4.51199 14.8272 53.2694 152.059 0 1 3 0.00820595 0.0080856 0.00933658 -10.2449 3.52556 3.34225 
4412 276 3 1.008 0.03 13.9373 3.00622 5.63827 13.9373 52.1886 153.185 0 1 3 -0.031182 -0.00110694 -0.00347579 -2.81488 0.822089 -2.9343 
1195 75 3 1.008 0.03 11.2254 2.00143 2.4915 -37.9569 2.00143 2.4915 -1 0 0 0.0155058 -0.0044115 0.0154984 12.9207 -6.00746 -6.56725 
9510 595 5 32.06 1.02 16.5394 6.41533 0.563155 16.5394 55.5977 49.7455 0 1 1 0.000818917 -0.00189102 -0.00460614 2.39821 -16.7154 -6.63027 
4233 265 3 1.008 0.03 8.93995 8.44624 5.20599 8.93995 8.44624 -43.9764 0 0 -1 0.00337265 -0.00353982 0.0188547 30.0381 8.45863 8.37283 
8913 558 1 16 -0.4 11.0466 7.99757 3.15953 60.229 57.1799 3.15953 1 1 0 -0.000701195 0.0012769 0.00150509 -32.4794 -4.28982 2.71325 
1289 81 3 1.008 0.03 15.9108 0.893715 3.09379 15.9108 50.0761 3.09379 0 1 0 -0.00393986 0.0184122 6.72026e-06 9.26463 -11.6579 -17.9786 
1295 81 3 1.008 0.03 15.3781 2.28308 0.845778 15.3781 51.4654 0.845778 0 1 0 0.0135489 0.00605506 -0.00874821 30.711 -18.659 11.9723 
1282 81 1 16 -0.4 16.6629 0.48711 1.16839 16.6629 49.6695 1.16839 0 1 0 -0.00304692 0.00401579 -0.00337403 -12.5702 14.1664 -23.3196 
1290 81 3 1.008 0.03 17.5681 0.620337 2.9621 17.5681 49.8027 2.9621 0 1 0 0.0326263 0.0261682 0.00318782 29.1232 0.0854586 11.1442 
2967 186 3 1.008 0.03 22.3005 0.511404 1.09856 22.3005 197.241 -48.0838 0 4 -1 -0.000654623 0.0153938 -0.00480267 11.876 -1.24087 -10.3472 
1271 80 3 1.008 0.03 17.7376 2.31714 5.4411 17.7376 100.682 5.4411 0 2 0 -0.00270964 0.00514478 -0.00680258 6.27204 -12.6401 -3.0178 
1296 81 3 1.008 0.03 17.1592 2.47967 1.21623 17.1592 51.662 1.21623 0 1 0 -0.0217966 -0.0152634 -0.012772 8.82004 15.0808 17.4667 
7644 478 3 1.008 0.03 24.7981 7.19823 5.6927 73.9805 56.3806 104.057 1 1 2 0.00404409 0.025186 0.0121395 -0.817469 7.16463 -4.08317 
1268 80 2 12.01 0.14 16.9743 3.6171 6.87971 16.9743 101.982 6.87971 0 2 0 0.00167169 -0.00245261 -0.00365476 -16.7055 -48.0569 48.3065 
8794 550 3 1.008 0.03 19.9742 2.15991 3.6908 -78.3905 198.889 52.8731 -2 4 1 0.00733278 -0.0030789 -0.00289224 -1.04481 5.32701 18.5535 
8788 550 2 12.01 0.14 20.6065 1.94187 4.57775 -77.7582 198.671 53.7601 -2 4 1 0.00521106 0.00319124 -0.00282431 -32.4238 4.83888 -15.6236 
2970 186 3 1.008 0.03 24.607 1.78737 0.81039 24.607 198.517 -48.372 0 4 -1 0.0365504 0.00463711 0.00242937 -22.0737 -2.33453 0.00974635 
9504 595 6 16 -0.53 17.0629 4.77857 3.17524 17.0629 53.9609 52.3576 0 1 1 -0.00275361 -0.000470134 -0.00677769 -38.1794 -43.7661 29.4597 
9502 595 4 14.01 -0.66 17.7568 6.50017 1.52941 17.7568 55.6825 50.7118 0 1 1 -0.00182007 -0.0015661 0.00197271 1.81384 -13.1848 16.4117 
7655 479 3 1.008 0.03 23.8669 0.935543 3.48821 -25.3155 50.1179 3.48821 -1 1 0 0.0145477 -0.0132496 0.0190459 9.22908 6.50649 -5.7006 
9509 595 8 19 -0.16 17.787 7.33161 4.30693 17.787 56.514 53.4893 0 1 1 0.00349155 6.80068e-05 -0.00199111 -19.5519 9.20007 3.05665 
9503 595 5 32.06 1.02 18.1619 5.42561 2.61417 18.1619 54.608 51.7965 0 1 1 0.000339678 -0.00379532 -5.92169e-05 43.6533 53.3185 -57.3552 
1267 80 2 12.01 0.14 16.8087 2.39463 5.98546 16.8087 100.759 5.98546 0 2 0 -0.00546792 -0.00774606 -0.00131299 -18.4431 3.43647 -35.545 
9506 595 7 12.01 0.35 18.7435 6.52357 3.96359 18.7435 55.7059 53.1459 0 1 1 0.00169371 0.00473012 0.00165621 -5.41589 19.5573 -7.97827 
8797 550 3 1.008 0.03 23.9181 4.62301 3.31437 -74.4466 201.352 52.4967 -2 4 1 0.00794927 -0.0331384 0.037604 5.4577 0.0927566 -9.49666 
8789 550 2 12.01 0.11 23.1497 4.56259 4.06118 -75.215 201.292 53.2435 -2 4 1 0.00394104 -0.00550319 -0.00302189 -9.07063 0.728514 16.4806 
3237 203 2 12.01 0.11 23.143 8.07986 1.44717 72.3253 57.2622 99.8119 1 1 2 0.00159017 0.00365723 -0.00272384 19.0471 -7.4057 -0.601295 
3243 203 3 1.008 0.03 23.0613 7.02056 1.26146 72.2437 56.2029 99.6262 1 1 2 -0.00947325 -0.00364861 0.0021543 -11.3133 -5.55632 -1.82043 
3245 203 3 1.008 0.03 22.3998 8.40226 2.19501 71.5822 57.5846 100.56 1 1 2 0.0161333 -0.0197527 0.0300191 9.20222 -1.12717 -4.26445 
8786 550 1 16 -0.4 21.2875 0.807056 4.16425 -77.0772 197.536 53.3466 -2 4 1 -0.00162354 0.00394073 0.0046631 35.9537 1.69683 -10.0387 
2969 186 3 1.008 0.03 23.1711 2.79017 0.880358 23.1711 199.52 -48.302 0 4 -1 -0.0132084 -0.00414171 0.0169487 -9.98907 30.6025 21.3803 
8785 550 1 16 -0.4 22.3905 3.37408 3.8728 -75.9742 200.103 53.0551 -2 4 1 0.00196373 0.00275919 0.00525241 13.1436 12.7434 -18.3205 
9507 595 8 19 -0.16 19.7146 7.3586 3.63989 19.7146 56.541 52.8222 0 1 1 -0.00658282 0.00195512 -0.00471248 11.1582 -10.033 -7.24706 
9508 595 8 19 -0.16 19.0699 5.93943 5.0806 19.0699 55.1218 54.2629 0 1 1 -0.00717985 -0.00529806 0.00320178 12.0295 -18.5627 10.1177 
8787 550 2 12.01 0.14 21.5057 3.14195 4.91813 -76.859 199.871 54.1005 -2 4 1 0.000797612 -0.00400717 -0.00125615 3.85791 -43.6314 28.7461 
8795 550 3 1.008 0.03 22.5092 5.47611 3.95035 -75.8555 202.206 53.1327 -2 4 1 -0.00776762 0.00837798 0.00650792 12.2496 -15.6843 8.48963 
8796 550 3 1.008 0.03 23.6755 4.48459 5.04272 -74.6892 201.214 54.2251 -2 4 1 0.0337143 -0.0089607 0.0149691 -9.83838 9.68186 -13.2739 
9505 595 6 16 -0.53 19.32 4.70863 2.13525 19.32 53.891 51.3176 0 1 1 -0.00186571 -0.00252205 -0.00113067 1.39629 -10.7123 16.9782 
8792 550 3 1.008 0.03 20.9432 4.00704 5.20889 -77.4215 200.736 54.3912 -2 4 1 -0.00592756 -0.00125092 0.00936649 -8.67519 10.4044 0.912927 
1273 80 3 1.008 0.03 16.8477 4.50288 6.42285 16.8477 102.868 6.42285 0 2 0 0.0268003 -0.0211412 0.00204369 -4.71255 46.8485 -36.3399 
8793 550 3 1.008 0.03 20.0362 1.6188 5.46563 -78.3285 198.348 54.648 -2 4 1 0.000924355 0.00739097 -0.00396516 -3.58623 9.97288 -9.1231 
8791 550 3 1.008 0.03 22.0431 2.75782 5.81048 -76.3216 199.487 54.9928 -2 4 1 -0.0281408 -0.0207192 -0.0275419 0.224313 15.3412 -9.75078 
2973 186 3 1.008 0.03 20.862 2.58957 0.996645 20.862 199.319 -48.1857 0 4 -1 -0.0158237 0.0174985 0.0140677 -5.97649 -0.767351 1.65125 
3244 203 3 1.008 0.03 24.178 8.06565 1.78192 73.3603 57.248 100.147 1 1 2 -0.0114917 0.0191167 0.0134707 -2.59846 11.1552 15.6448 
2972 186 3 1.008 0.03 20.0606 0.944552 0.874777 20.0606 197.674 -48.3076 0 4 -1 0.00419578 0.0180774 0.0168195 10.3848 15.3751 0.28723 
7643 478 3 1.008 0.03 24.4366 8.57178 4.63663 73.6189 57.7541 103.001 1 1 2 0.0110753 0.0347642 0.0213093 5.18846 7.97526 24.431 
1266 80 1 16 -0.4 18.3131 3.53501 7.31689 18.3131 101.9 7.31689 0 2 0 0.00583272 0.00680217 0.00150126 -4.68254 19.2305 28.2371 
4229 265 2 12.01 0.11 6.90756 10.8259 6.83555 6.90756 10.8259 -42.3468 0 0 -1 0.00503118 0.000877509 0.00786284 -5.69361 -6.13499 -25.204 
4225 265 1 16 -0.4 7.64415 9.70722 7.39494 7.64415 9.70722 -41.7874 0 0 -1 -0.00234137 -0.00381232 -0.00734262 10.0419 13.7778 -8.45812 
5318 333 2 12.01 0.11 2.82608 8.87401 7.20026 52.0084 107.239 56.3826 1 2 1 0.00639473 -0.00854847 0.00509728 18.1725 -55.4784 8.30039 
5963 373 3 1.008 0.03 0.839612 16.3994 1.46435 -48.3427 65.5818 50.6467 -1 1 1 0.00360953 0.0095234 0.0231933 8.53278 0.443696 5.88724 
2495 156 3 1.008 0.03 6.04918 12.7852 2.09825 6.04918 12.7852 51.2806 0 0 1 0.00479776 -0.0260338 0.0129128 4.66494 0.288423 4.44297 
2482 156 1 16 -0.4 7.59837 13.9549 1.46789 7.59837 13.9549 50.6502 0 0 1 -0.000907269 0.00761887 0.0030982 -9.30648 10.6906 3.61509 
7536 471 3 1.008 0.03 3.09949 8.68549 1.99853 -46.0829 8.68549 1.99853 -1 0 0 -0.0355385 -0.00116956 -0.00237399 7.90008 1.77379 -0.787603 
2979 187 2 12.01 0.14 3.22051 13.173 4.87362 3.22051 13.173 103.238 0 0 2 -0.00524592 0.00101867 -0.00616919 5.02329 25.2809 5.66576 
2984 187 3 1.008 0.03 2.29978 12.7331 4.55201 2.29978 12.7331 102.917 0 0 2 0.00331633 -0.00324724 0.0051203 -8.37282 -11.2407 -12.5999 
2981 187 2 12.01 0.11 4.27244 11.1858 4.59609 4.27244 11.1858 102.961 0 0 2 0.000632251 0.00295119 -0.00888145 -2.04109 -38.9112 -16.1194 
2989 187 3 1.008 0.03 4.90675 11.3305 3.77251 4.90675 11.3305 102.137 0 0 2 0.00212203 0.00380224 0.0157995 14.0898 20.2546 -20.7755 
2977 187 1 16 -0.4 4.08324 12.2205 5.44289 4.08324 12.2205 103.808 0 0 2 -0.0122014 0.000155919 -0.00078109 5.33784 23.1311 24.9514 
2988 187 3 1.008 0.03 3.30749 10.9385 4.19043 3.30749 10.9385 102.555 0 0 2 0.0271284 0.0027384 -0.0011305 -5.27238 -20.8407 -4.73597 
7150 447 3 1.008 0.03 1.1017 12.445 1.27714 -97.263 12.445 1.27714 -2 0 0 -0.0182907 0.00637708 0.0176297 11.3006 -5.80083 -21.7635 
2987 187 3 1.008 0.03 4.76014 10.3312 5.04137 4.76014 10.3312 103.406 0 0 2 -0.0166716 -0.0125027 0.0222947 -8.4685 -6.07143 11.3829 
2980 187 2 12.01 0.14 2.69819 14.065 6.02471 2.69819 14.065 104.389 0 0 2 -0.00872465 0.00250298 0.00225142 34.5135 -0.189635 4.04461 
2978 187 1 16 -0.4 3.57982 15.1724 6.2256 3.57982 15.1724 104.59 0 0 2 0.000414136 -0.00651924 -0.00150189 4.91835 0.873762 -5.84942 
2983 187 3 1.008 0.03 3.70381 13.6711 3.98999 3.70381 13.6711 102.355 0 0 2 0.00541577 0.01671 0.0055766 -12.4393 -1.86778 19.9692 
2986 187 3 1.008 0.03 2.53214 13.508 6.94795 2.53214 13.508 105.313 0 0 2 0.0116606 -0.00212609 -0.0344576 4.98904 -2.88841 -0.511733 
2990 187 3 1.008 0.03 2.25102 16.2949 7.31661 2.25102 16.2949 105.681 0 0 2 -0.0285976 0.0128601 0.00680244 -16.8114 17.7151 -4.58556 
2982 187 2 12.01 0.11 3.26803 15.9993 7.33998 3.26803 15.9993 105.705 0 0 2 0.00197453 -0.0014669 0.00801959 13.5222 -31.6156 22.3263 
6000 375 3 1.008 0.03 6.71101 14.477 7.42681 6.71101 14.477 7.42681 0 0 0 0.0043965 0.0177486 0.0118732 -12.8092 -17.2358 -4.40244 
4235 265 3 1.008 0.03 6.86027 10.623 5.73556 6.86027 10.623 -43.4468 0 0 -1 -0.016893 0.00120141 -0.0117845 1.43639 11.8869 20.807 
2493 156 3 1.008 0.03 7.97839 15.9742 2.75732 7.97839 15.9742 51.9397 0 0 1 0.0167611 0.00683215 -0.000643601 -16.713 10.8173 1.68992 
7142 447 2 12.01 0.11 1.86713 12.452 0.453017 -96.4976 12.452 0.453017 -2 0 0 -0.00209067 -0.00246553 0.00571579 -27.7011 32.6065 26.5136 
7144 447 3 1.008 0.03 4.67786 15.1746 0.887278 -93.6868 15.1746 0.887278 -2 0 0 0.00645689 -0.0115019 0.0155851 -7.75117 -14.6655 -16.0393 
2494 156 3 1.008 0.03 7.71881 12.2214 2.66556 7.71881 12.2214 51.8479 0 0 1 0.00416761 0.00104679 0.0199209 -20.5339 14.5381 -28.5625 
5327 333 3 1.008 0.03 2.63926 8.95006 6.13516 51.8216 107.315 55.3175 1 2 1 -0.00697149 0.000237677 0.00176464 5.03018 1.92477 -5.6393 
5999 375 3 1.008 0.03 7.03817 15.3284 5.85838 7.03817 15.3284 5.85838 0 0 0 0.00782057 -0.0277291 -0.00796207 2.4165 -8.81084 -3.18309 
5990 375 2 12.01 0.11 7.29777 15.1993 6.90748 7.29777 15.1993 6.90748 0 0 0 -0.0051687 -0.00254441 0.00648596 15.0926 -6.44517 0.654685 
4236 265 3 1.008 0.03 5.85646 10.8006 7.19766 5.85646 10.8006 -41.9847 0 0 -1 -0.00521744 0.0181784 -0.00149974 14.7087 2.83212 -2.75887 
4237 265 3 1.008 0.03 7.33494 11.8825 6.94584 7.33494 11.8825 -42.2365 0 0 -1 0.0087788 -0.00538102 -0.0127917 -9.87603 -37.5179 3.82857 
2486 156 2 12.01 0.11 7.1075 12.7096 1.82699 7.1075 12.7096 51.0093 0 0 1 -0.00446536 -0.00498581 -0.00206689 12.3157 -24.7255 21.3765 
2985 187 3 1.008 0.03 1.74336 14.3904 5.76297 1.74336 14.3904 104.128 0 0 2 -0.0110339 -0.0274312 0.00446242 -28.2401 17.895 -8.50192 
7138 447 1 16 -0.4 2.56829 13.6942 0.645743 -95.7964 13.6942 0.645743 -2 0 0 0.00348197 0.00200476 0.000246748 -12.9287 -21.4482 -9.38562 
2496 156 3 1.008 0.03 7.13791 12.1346 0.909579 7.13791 12.1346 50.0919 0 0 1 -0.0279972 -0.0121652 -0.0174828 -0.863473 -13.0305 3.09976 
5998 375 3 1.008 0.03 6.98421 16.0783 7.3683 6.98421 16.0783 7.3683 0 0 0 -0.00139142 0.01454 -0.0228052 -4.38869 30.9886 15.3722 
7152 447 3 1.008 0.03 2.52903 11.6518 0.636213 -95.8357 11.6518 0.636213 -2 0 0 -0.0461704 0.0198265 -0.0017162 14.1012 -20.4855 2.53505 
5989 375 2 12.01 0.11 12.6001 13.9239 7.34082 12.6001 13.9239 7.34082 0 0 0 0.00240465 -0.0102807 -0.000526733 -14.52 -4.30113 23.218 
8353 523 1 16 -0.4 15.969 14.7206 0.567255 114.334 14.7206 98.932 2 0 2 -0.000725527 0.00269144 0.00741622 -7.80545 -5.1439 22.5369 
9147 572 3 1.008 0.03 16.7788 12.0222 0.726675 115.143 61.2045 49.909 2 1 1 0.00416287 -0.00835112 0.0337091 -4.76369 -9.82806 0.569735 
2490 156 3 1.008 0.03 9.63213 13.6559 1.53667 9.63213 13.6559 50.719 0 0 1 0.0186993 -0.00230736 0.0159573 -1.47953 0.108246 -1.83394 
5988 375 2 12.01 0.14 9.53544 16.0463 7.00272 9.53544 16.0463 7.00272 0 0 0 -0.00258178 0.000377965 0.0053397 30.0805 -36.7929 -8.19211 
8928 558 3 1.008 0.03 9.29791 11.524 5.2871 58.4803 60.7063 5.2871 1 1 0 0.00808064 -0.0307448 0.00132735 4.9114 -3.25922 -1.00261 
8926 558 3 1.008 0.03 10.4872 11.9867 6.37507 59.6695 61.169 6.37507 1 1 0 0.0215434 -0.0113031 0.0106371 11.272 8.1323 48.5949 
1581 99 3 1.008 0.03 13.1996 12.9141 1.13315 62.382 -36.2682 50.3155 1 -1 1 -0.0273761 0.0164253 0.00879642 -9.42471 14.4525 8.75142 
2491 156 3 1.008 0.03 9.41086 15.2904 3.36681 9.41086 15.2904 52.5492 0 0 1 -0.00333643 0.00420012 -7.54079e-06 -2.85241 22.4856 -9.39891 
8918 558 2 12.01 0.11 10.3678 11.7343 5.39797 59.5502 60.9167 5.39797 1 1 0 0.012763 -0.0029583 -0.00312856 -45.7647 12.9111 -41.3645 
734 46 3 1.008 0.03 15.8746 10.712 5.16071 15.8746 -136.835 5.16071 0 -3 0 0.00478729 0.00568189 -0.0373475 -2.63438 -0.640579 9.93253 
726 46 2 12.01 0.11 15.956 11.1517 6.16972 15.956 -136.395 6.16972 0 -3 0 0.00876444 -0.00391432 -0.00500692 -11.1312 9.93559 -27.679 
8919 558 3 1.008 0.03 12.6511 8.87094 4.0921 61.8335 58.0533 4.0921 1 1 0 -0.00623253 -0.0177729 -0.0179181 -6.65743 1.64844 -3.74074 
735 46 3 1.008 0.03 14.9986 11.6594 6.40335 14.9986 -135.888 6.40335 0 -3 0 0.0179262 -0.000714543 -0.0198857 8.42571 -12.6815 2.89912 
722 46 1 16 -0.4 16.3895 10.2136 7.12127 16.3895 -137.333 7.12127 0 -3 0 0.00565194 9.98749e-05 0.00328883 21.0247 -29.3556 4.68721 
2481 156 1 16 -0.4 9.59854 16.2397 1.52281 9.59854 16.2397 50.7052 0 0 1 -0.00503951 -0.00164659 -0.00345502 7.83 0.113871 -21.6619 
8922 558 3 1.008 0.03 10.1537 10.4005 3.24086 59.336 59.5828 3.24086 1 1 0 -0.0232821 -0.0152931 0.00057035 19.7375 -8.14101 3.6548 
8361 523 3 1.008 0.03 15.5011 15.7346 3.7211 113.866 15.7346 102.086 2 0 2 -0.000551325 0.0007634 0.0212745 2.61071 -3.29097 -0.534981 
736 46 3 1.008 0.03 16.6526 11.9625 6.05007 16.6526 -135.585 6.05007 0 -3 0 -0.00175005 0.0161233 -0.00407467 11.0128 4.50123 3.2483 
8921 558 3 1.008 0.03 11.5457 11.3386 3.11469 60.7281 60.5209 3.11469 1 1 0 0.0127258 -0.000111958 -0.00831254 17.5129 -5.84354 -3.00928 
1579 99 3 1.008 0.03 14.4399 11.8567 1.57322 63.6222 -37.3256 50.7556 1 -1 1 -0.0209785 0.0025991 -0.00616054 27.3382 -10.6312 24.1284 
8920 558 3 1.008 0.03 12.609 9.09591 2.3946 61.7914 58.2783 2.3946 1 1 0 -0.00104641 -0.00377077 0.021887 -11.8123 7.25298 2.69797 
8914 558 1 16 -0.4 11.1201 10.6564 5.00376 60.3024 59.8387 5.00376 1 1 0 -0.00138174 0.00238449 0.00277103 32.0324 -29.417 0.617616 
8915 558 2 12.01 0.14 11.9441 9.08169 3.27392 61.1265 58.264 3.27392 1 1 0 0.00119562 -0.00193277 0.00217529 34.6579 -1.60467 11.2746 
8916 558 2 12.01 0.14 11.2121 10.4269 3.60678 60.3945 59.6093 3.60678 1 1 0 -0.0037414 -4.63371e-05 0.00610077 -46.4752 2.33797 -13.5206 
8358 523 2 12.01 0.11 13.3252 14.2629 3.82941 111.69 14.2629 102.194 2 0 2 0.00320968 -0.00578835 0.0037321 7.39536 33.9301 -30.6782 
8354 523 1 16 -0.4 14.598 14.0015 3.21516 112.963 14.0015 101.58 2 0 2 -0.00574678 -0.00596224 0.00792994 -13.9766 16.005 7.31452 
8367 523 3 1.008 0.03 12.6549 14.6106 3.01163 111.02 14.6106 101.376 2 0 2 0.017479 -0.00828813 -0.0218966 6.3072 -2.71603 13.8519 
8368 523 3 1.008 0.03 12.9206 13.3526 4.14314 111.285 13.3526 102.508 2 0 2 0.0108664 -0.000715164 0.0240984 -11.7196 -24.68 15.4483 
5992 375 3 1.008 0.03 10.9214 14.9913 5.65856 10.9214 14.9913 5.65856 0 0 0 -0.00895462 -0.00346005 -0.0014101 5.59285 12.7086 18.9376 
8356 523 2 12.01 0.14 15.1853 15.2318 2.80273 113.55 15.2318 101.167 2 0 2 0.0016648 0.00803024 0.00396676 25.0436 -6.18091 7.3207 
8366 523 3 1.008 0.03 13.3044 15.0425 4.63294 111.669 15.0425 102.998 2 0 2 0.0118371 -0.00965131 -0.00576467 5.35352 -16.6707 -11.4329 
2485 156 2 12.01 0.11 9.02211 16.1947 2.82199 9.02211 16.1947 52.0043 0 0 1 -0.000545725 0.00578337 0.00194224 15.0892 -36.944 4.96043 
8927 558 3 1.008 0.03 10.5277 12.6275 4.81867 59.7101 61.8098 4.81867 1 1 0 -0.012013 0.0198049 0.00848064 7.99658 6.21225 -5.97579 
8355 523 2 12.01 0.14 16.4493 14.9716 1.92228 114.814 14.9716 100.287 2 0 2 -0.00197698 -0.00257263 0.00181212 -47.2505 22.1987 0.691917 
8362 523 3 1.008 0.03 14.5237 15.9721 2.38062 112.888 15.9721 100.745 2 0 2 -0.00440603 -0.0385048 0.0110945 -8.18689 -4.0148 -11.7357 
5986 375 1 16 -0.4 8.66069 14.9086 7.19588 8.66069 14.9086 7.19588 0 0 0 -0.00255421 -0.0108457 -0.00483002 7.41421 17.4267 -12.2227 
1573 99 2 12.01 0.11 13.8145 12.1196 0.790647 62.9968 -37.0627 49.973 1 -1 1 0.00128745 0.00848011 0.00375767 -50.0433 -11.3611 -1.49195 
2483 156 2 12.01 0.14 9.0028 15.4658 0.432636 9.0028 15.4658 49.615 0 0 1 -0.00324444 -0.00202194 -0.000680707 -4.72192 -28.6092 41.1827 
2206 138 3 1.008 0.03 10.1594 9.81923 7.29069 59.3418 59.0016 -91.074 1 1 -2 -0.0107557 -0.0218657 0.0146045 11.3359 -3.29759 5.36322 
5987 375 2 12.01 0.14 10.9724 15.497 6.66156 10.9724 15.497 6.66156 0 0 0 -0.00413417 -0.00615884 -0.00692038 -32.506 9.73167 -23.9295 
5994 375 3 1.008 0.03 9.2512 16.5935 6.08318 9.2512 16.5935 6.08318 0 0 0 -0.00743027 -0.00869547 -0.0360051 -2.73539 8.73559 19.0222 
2484 156 2 12.01 0.14 8.84794 13.9436 0.829745 8.84794 13.9436 50.0121 0 0 1 0.00615353 -0.00207555 -0.00725447 -0.519509 45.6498 35.5008 
2207 138 3 1.008 0.03 11.5066 8.68435 7.36418 60.689 57.8667 -91.0005 1 1 -2 0.0120553 -0.013678 0.00624923 -1.82758 -0.823773 3.28884 
5991 375 3 1.008 0.03 11.6674 16.34 6.66971 11.6674 16.34 6.66971 0 0 0 0.00121442 -0.000417053 -0.0150787 1.21189 -2.53349 -8.44799 
5997 375 3 1.008 0.03 12.4519 13.4484 6.39449 12.4519 13.4484 6.39449 0 0 0 0.0231429 -0.0305584 0.0227221 -1.16845 -22.5081 -2.70727 
5995 375 3 1.008 0.03 13.4288 14.5646 7.10502 13.4288 14.5646 7.10502 0 0 0 -0.028514 -0.0235588 -0.0288019 9.38469 11.332 10.8954 
1576 99 3 1.008 0.03 14.3086 9.56201 0.538133 63.4909 -39.6203 49.7205 1 -1 1 -0.00529009 -0.00373178 0.00357833 17.612 -8.17775 14.58 
3239 203 3 1.008 0.03 22.5108 10.6232 1.10444 71.6931 59.8056 99.4691 1 1 2 -0.017146 0.00392154 -0.0145321 0.689283 -4.08475 2.37062 
9150 572 3 1.008 0.03 21.1412 11.8426 4.67502 119.506 61.025 53.8574 2 1 1 -0.00477289 0.0133694 0.0315419 -1.04037 -10.6793 17.9307 
5879 368 3 1.008 0.03 23.2014 15.4711 0.577182 219.931 15.4711 -48.6052 4 0 -1 0.014106 0.00414095 -0.011254 -15.3942 9.09035 9.05778 
3240 203 3 1.008 0.03 24.2369 10.3476 1.03625 73.4193 59.53 99.401 1 1 2 -0.0081563 -0.0392364 0.026677 8.51985 10.1016 0.836085 
165 11 2 12.01 0.11 24.8031 15.3857 7.04808 123.168 64.5681 105.413 2 1 2 0.00289992 -0.0022371 -0.00391918 10.1885 17.5422 36.0603 
729 46 3 1.008 0.03 18.4021 10.0895 6.55089 18.4021 -137.458 6.55089 0 -3 0 0.00555102 -0.000290131 -0.00951113 1.46599 -3.60718 -9.03236 
9152 572 3 1.008 0.03 21.367 13.1238 3.65508 119.732 62.3062 52.8374 2 1 1 0.0067323 -0.00333284 0.00547365 4.97662 2.22862 -5.0224 
8359 523 3 1.008 0.03 17.0101 14.2383 2.45622 115.375 14.2383 100.821 2 0 2 -0.0074847 -0.0204236 0.000636977 14.1201 -18.7873 -7.33325 
5883 368 3 1.008 0.03 24.8078 13.075 2.78483 221.537 13.075 -46.3975 4 0 -1 -0.00867767 0.0118927 -0.0175814 6.16268 -10.364 21.3503 
5873 368 1 16 -0.4 23.0779 14.1074 2.11183 219.807 14.1074 -47.0705 4 0 -1 0.00289637 -0.000423893 0.00720184 41.1857 -29.7754 4.12329 
730 46 3 1.008 0.03 17.3592 8.69673 5.89343 17.3592 -138.85 5.89343 0 -3 0 0.00631264 0.023605 0.011142 2.99888 28.6903 13.7125 