ITEM: TIMESTEP
650000
ITEM: NUMBER OF ATOMS
10479
ITEM: BOX BOUNDS pp pp pp
4.0882558190751794e-01 4.9591174418091420e+01
4.0882558190751794e-01 4.9591174418091420e+01
4.0882558190751794e-01 4.9591174418091420e+01
ITEM: ATOMS id mol type mass q x y z xu yu zu ix iy iz vx vy vz fx fy fz 
8566 536 2 12.01 0.11 4.79867 3.02263 5.39952 4.79867 3.02263 -43.7828 0 0 -1 0.00709902 -0.00378113 0.00534262 -5.92493 -33.1543 -1.18775 
8576 536 3 1.008 0.03 4.13781 3.62549 4.73903 4.13781 3.62549 -44.4433 0 0 -1 0.021849 -0.0165773 -0.0226304 12.8393 -3.08642 9.26831 
8575 536 3 1.008 0.03 4.72265 3.31594 6.47034 4.72265 3.31594 -42.712 0 0 -1 -0.016003 -0.00616831 0.00654551 -11.562 -5.33275 -18.2197 
8574 536 3 1.008 0.03 4.57324 1.91869 5.19854 4.57324 1.91869 -43.9838 0 0 -1 -0.0364219 -0.0131583 0.0326296 -3.5888 36.2835 15.5977 
865 55 1 16 -0.4 3.06779 7.82644 3.51986 -46.1146 -41.3559 3.51986 -1 -1 0 -0.00348197 -0.00118681 0.000773491 -6.02637 -8.01811 19.5249 
6635 415 3 1.008 0.03 6.97261 2.00036 1.60927 -42.2097 51.1827 1.60927 -1 1 0 -0.0376175 0.00478923 0.00544363 12.3387 -6.75115 -6.70274 
871 55 3 1.008 0.03 2.21153 8.38951 1.68154 -46.9708 -40.7928 1.68154 -1 -1 0 -0.0168462 -0.0496019 -0.00997704 6.39902 -5.74867 -2.02479 
2985 187 3 1.008 0.03 2.56536 6.04471 5.91705 2.56536 6.04471 104.282 0 0 2 0.00949038 0.024434 -0.0204632 6.39246 -5.17107 11.4684 
8562 536 1 16 -0.4 6.17045 3.04422 5.10755 6.17045 3.04422 -44.0748 0 0 -1 -0.0017786 -0.0021731 0.000832751 0.461872 12.6511 4.71817 
8564 536 2 12.01 0.14 6.73634 4.34871 5.16686 6.73634 4.34871 -44.0155 0 0 -1 -0.000309662 0.00118866 -0.000651091 -18.4084 -5.29987 -1.46537 
8569 536 3 1.008 0.03 6.61183 4.995 6.02832 6.61183 4.995 -43.154 0 0 -1 0.0206338 -0.0211579 -0.0185027 -0.267015 -15.9304 17.9233 
8570 536 3 1.008 0.03 6.2707 4.97112 4.479 6.2707 4.97112 -44.7034 0 0 -1 0.00916872 0.02198 0.00794978 -15.8814 13.6509 -31.4388 
8733 546 3 1.008 0.03 2.90352 1.44977 3.03659 52.0859 -47.7326 52.2189 1 -1 1 0.0139422 0.00169506 0.0128293 -2.58529 -8.57476 3.79031 
6637 415 3 1.008 0.03 5.61125 2.35093 2.56561 -43.5711 51.5333 2.56561 -1 1 0 -0.00427453 -0.0116502 -0.0221852 -10.9901 -5.99743 16.4997 
8025 502 3 1.008 0.03 6.09415 5.77249 1.33641 104.459 104.137 99.7011 2 2 2 -0.0101292 0.00333659 0.0116952 -9.79131 11.7584 -2.02347 
8032 502 3 1.008 0.03 7.40332 6.61389 2.97932 105.768 104.979 101.344 2 2 2 0.0130802 -0.0028798 0.0353068 25.7617 24.203 -22.5091 
8022 502 2 12.01 0.11 8.08834 7.12556 2.20866 106.453 105.49 100.573 2 2 2 0.00538808 0.00368543 -0.00143462 -13.1821 -31.4158 21.8995 
8020 502 2 12.01 0.14 6.65624 6.30522 0.563852 105.021 104.67 98.9285 2 2 2 -0.00216592 0.00726653 0.00199016 13.2233 0.762858 21.2235 
6625 415 1 16 -0.4 5.11254 1.39177 0.737339 -44.0698 50.5741 0.737339 -1 1 0 -0.00766333 0.0115724 -0.000395498 1.47072 15.8281 -4.60516 
8018 502 1 16 -0.4 7.38108 7.43765 1.03358 105.746 105.802 99.3983 2 2 2 -0.00309584 -0.000571056 -0.00547018 -7.53948 4.25696 5.73525 
6629 415 2 12.01 0.11 5.93403 2.2565 1.55792 -43.2483 51.4388 1.55792 -1 1 0 -0.00802375 -0.0122082 0.00247128 -13.5827 -13.2861 -13.941 
877 55 3 1.008 0.03 2.62884 6.04772 2.5428 -46.5535 -43.1346 2.5428 -1 -1 0 -0.00995573 0.0520372 0.0093432 -6.52822 -6.08491 6.74022 
875 55 3 1.008 0.03 4.10192 6.82534 2.05421 -45.0804 -42.357 2.05421 -1 -1 0 -0.0142184 -0.0100892 0.00484691 -6.5653 -7.07897 22.7989 
869 55 2 12.01 0.11 3.461 6.60776 2.94908 -45.7213 -42.5746 2.94908 -1 -1 0 -0.0119916 0.00550974 0.00172169 16.5692 18.3029 -35.3275 
876 55 3 1.008 0.03 4.02045 6.07954 3.71011 -45.1619 -43.1028 3.71011 -1 -1 0 -0.0253273 -0.000957788 0.0187007 1.42267 -10.6393 -1.20984 
8563 536 2 12.01 0.14 8.14288 4.1923 4.78298 8.14288 4.1923 -44.3994 0 0 -1 -0.00240502 0.000323837 0.00338718 39.8845 34.6928 -21.024 
8567 536 3 1.008 0.03 8.56712 3.55081 5.51383 8.56712 3.55081 -43.6685 0 0 -1 0.0111292 0.0361225 -0.00433374 13.9282 -13.2021 10.6408 
8561 536 1 16 -0.4 8.30261 3.66245 3.43049 8.30261 3.66245 -45.7519 0 0 -1 0.00867273 -0.000210069 0.00415305 -6.36701 14.3168 15.829 
6636 415 3 1.008 0.03 5.83311 3.25877 1.15892 -43.3492 52.4411 1.15892 -1 1 0 -0.00621839 0.00306646 0.00019317 4.26975 3.68388 -3.01412 
8731 546 3 1.008 0.03 1.98637 2.10012 1.69856 51.1687 -47.0822 50.8809 1 -1 1 0.00441981 -0.00381956 -0.0281456 -4.35232 -1.22997 10.6546 
8725 546 2 12.01 0.11 2.12121 2.15981 2.79325 51.3036 -47.0225 51.9756 1 -1 1 -0.00213401 0.000862763 0.00597483 7.68293 -5.60782 -17.9279 
8723 546 2 12.01 0.14 1.04316 1.58787 4.88781 50.2255 -47.5945 54.0702 1 -1 1 -0.00887312 -0.00252242 -0.00115697 17.6695 10.0155 11.885 
6044 378 3 1.008 0.03 2.0863 4.5437 0.587093 2.0863 -44.6386 -97.7776 0 -1 -2 -0.010944 0.00407777 -0.00542006 -2.40224 -2.224 -5.63631 
2395 150 3 1.008 0.03 6.77783 0.645471 6.00224 -91.5869 49.8278 55.1846 -2 1 1 0.0034808 0.0184285 -0.00479356 21.2476 -11.1068 -4.71978 
8727 546 3 1.008 0.03 1.57275 0.608951 4.93885 50.7551 -48.5734 54.1212 1 -1 1 -0.00229986 0.012272 -0.00326358 -1.67736 17.5379 -1.88155 
2396 150 3 1.008 0.03 8.38459 0.687313 6.73451 -89.9801 49.8697 55.9169 -2 1 1 0.0079815 -0.0231643 -0.0301643 15.8608 13.8636 -4.10788 
2980 187 2 12.01 0.14 1.63019 6.33284 6.39235 1.63019 6.33284 104.757 0 0 2 0.00589498 -0.0009628 7.23858e-05 7.34911 7.75468 4.63296 
2983 187 3 1.008 0.03 0.646212 4.47131 6.42114 0.646212 4.47131 104.786 0 0 2 -0.00698852 0.00145611 0.0128061 -12.4195 -6.10425 -8.00058 
8721 546 1 16 -0.4 0.901073 1.98076 3.49414 50.0834 -47.2016 52.6765 1 -1 1 -0.00172578 0.00725028 0.000868105 -5.72188 -5.21494 20.1816 
8732 546 3 1.008 0.03 2.57087 3.1172 2.95907 51.7532 -46.0651 52.1414 1 -1 1 0.00200318 0.0161801 -0.0145093 -0.484915 13.563 7.04787 
8728 546 3 1.008 0.03 1.69013 2.30014 5.47846 50.8725 -46.8822 54.6608 1 -1 1 -0.0150222 0.00218247 0.0382756 -16.1356 -11.8018 -19.9282 
2986 187 3 1.008 0.03 1.1138 6.63742 5.50859 1.1138 6.63742 103.873 0 0 2 -0.00325122 -0.0129097 0.0150713 -19.714 -2.12448 -7.35382 
2979 187 2 12.01 0.14 0.925458 5.17345 7.18443 0.925458 5.17345 105.549 0 0 2 -0.00205714 -0.00761492 -0.00102799 26.8655 36.2221 -44.3552 
2991 187 3 1.008 0.03 3.38036 8.55526 6.27988 3.38036 8.55526 104.645 0 0 2 0.0186655 -0.0111222 0.00894 24.2131 -3.24913 -8.74432 
2978 187 1 16 -0.4 1.75235 7.52075 7.17528 1.75235 7.52075 105.54 0 0 2 -0.00141016 0.000291903 -0.000519185 15.031 29.1462 -10.5614 
8030 502 3 1.008 0.03 8.78753 6.35964 1.86168 107.152 104.724 100.226 2 2 2 0.0112371 -0.0283957 -0.0057424 5.65055 2.47345 10.5589 
8031 502 3 1.008 0.03 8.66944 7.95357 2.64962 107.034 106.318 101.014 2 2 2 0.0143759 -0.0117839 0.0190674 -11.0143 -4.04943 -3.63128 
8572 536 3 1.008 0.03 9.78323 2.41697 3.82009 9.78323 2.41697 -45.3623 0 0 -1 -0.00478263 -0.00656642 0.00902774 10.1978 4.62572 -17.8282 
8573 536 3 1.008 0.03 9.60892 3.01514 2.00817 9.60892 3.01514 -47.1742 0 0 -1 0.00862581 0.00514028 -0.0133467 9.50422 -1.97717 28.9995 
6875 430 3 1.008 0.03 13.2871 1.03689 0.795347 111.652 50.2192 0.795347 2 1 0 0.00112423 0.025819 0.0183246 -0.389059 -4.45219 5.70785 
6865 430 1 16 -0.4 11.6025 0.819344 2.01932 109.967 50.0017 2.01932 2 1 0 0.000627453 0.00172289 0.00819394 14.7331 15.8994 5.94683 
6877 430 3 1.008 0.03 13.053 2.50142 1.86373 111.418 51.6838 1.86373 2 1 0 -0.0090442 -0.0024909 0.000984407 -32.804 -53.3363 -17.0443 
9516 595 8 19 -0.16 13.6063 6.47172 1.73958 13.6063 55.6541 50.9219 0 1 1 0.00167275 -0.00737366 0.00493928 -1.42899 -13.3515 -25.7328 
6869 430 2 12.01 0.11 12.5116 1.61865 1.29807 110.876 50.801 1.29807 2 1 0 0.000648894 -0.00546989 0.0114543 47.7364 54.656 8.91669 
8568 536 3 1.008 0.03 8.61244 5.22211 4.91727 8.61244 5.22211 -44.2651 0 0 -1 0.0026948 -0.012816 0.0017307 -6.67446 -32.2151 -9.83902 
8565 536 2 12.01 0.11 9.62732 3.25495 3.11378 9.62732 3.25495 -46.0686 0 0 -1 -0.00311005 -0.00102026 0.000312896 -37.9792 -9.20641 -4.82236 
728 46 3 1.008 0.03 13.0006 7.77408 3.69264 13.0006 -139.773 3.69264 0 -3 0 0.00812628 -0.00245578 0.00872943 13.3611 -11.944 -12.375 
723 46 2 12.01 0.14 12.1621 8.42202 3.75563 12.1621 -139.125 3.75563 0 -3 0 0.00180658 0.00442236 -0.0086141 -44.8616 -56.9075 30.2059 
721 46 1 16 -0.4 11.2383 7.66848 4.65366 11.2383 -139.879 4.65366 0 -3 0 -0.000543115 0.00552318 -0.00318708 -9.7329 23.1321 -46.8757 
730 46 3 1.008 0.03 10.7656 8.06762 2.08748 10.7656 -139.479 2.08748 0 -3 0 -0.00253172 -0.0417278 0.0104727 0.950109 -9.86244 -0.400019 
9512 595 6 16 -0.53 14.7292 4.59079 3.57929 14.7292 53.7731 52.7616 0 1 1 -0.00270822 -0.00338121 -0.00239209 -10.9293 7.18738 -7.47863 
9510 595 5 32.06 1.02 15.3537 4.68369 2.28007 15.3537 53.866 51.4624 0 1 1 0.00278324 -0.000912868 -0.00103605 -1.25088 6.30313 44.1602 
8571 536 3 1.008 0.03 10.2612 4.08204 3.33897 10.2612 4.08204 -45.8434 0 0 -1 -0.0174788 0.00202969 0.00628842 17.0402 9.06229 -0.818135 
725 46 2 12.01 0.11 11.6297 7.31321 5.94895 11.6297 -140.234 5.94895 0 -3 0 -0.00363362 -0.00233971 -0.00428182 13.0805 8.91872 14.0442 
9502 595 4 14.01 -0.66 15.4516 3.28461 1.68874 15.4516 52.467 50.8711 0 1 1 -0.012169 -0.00303997 0.00748065 -9.06734 -13.8826 -2.27871 
4415 276 3 1.008 0.03 14.6475 3.54441 6.14846 14.6475 52.7268 153.696 0 1 3 -0.0130916 0.0135443 -0.00225782 -15.9596 -2.0393 -5.4786 
9511 595 6 16 -0.53 16.4843 5.60002 2.22477 16.4843 54.7824 51.4071 0 1 1 0.00226881 0.00509885 -0.00380638 -12.577 -10.1189 -20.799 
9503 595 5 32.06 1.02 16.6458 2.45494 1.23995 16.6458 51.6373 50.4223 0 1 1 -0.00197438 0.00389271 -0.00161269 34.7131 -10.1281 -32.288 
7755 485 3 1.008 0.03 14.6624 6.90349 6.62697 14.6624 105.268 6.62697 0 2 0 -0.0153815 -0.0168827 0.0143968 16.2695 8.40602 5.17779 
4406 276 2 12.01 0.11 13.5682 3.35438 6.33317 13.5682 52.5367 153.88 0 1 3 -0.00108929 -0.00456746 -0.000480848 25.0096 -27.2018 21.1598 
4414 276 3 1.008 0.03 13.2175 4.1613 6.92831 13.2175 53.3436 154.475 0 1 3 0.00358246 -0.0148802 -0.0389097 -8.59738 16.3864 7.30995 
732 46 3 1.008 0.03 12.5754 6.80876 5.89808 12.5754 -140.738 5.89808 0 -3 0 -0.00837513 -0.0125784 0.0107239 8.53986 -5.91021 1.09587 
4416 276 3 1.008 0.03 12.9854 3.33336 5.40717 12.9854 52.5157 152.954 0 1 3 -0.00413346 -0.00981386 -0.0111634 3.45233 -4.83325 1.31868 
731 46 3 1.008 0.03 10.9461 6.67792 6.51298 10.9461 -140.869 6.51298 0 -3 0 -0.00602576 0.0160474 0.0188637 -5.02208 -2.61192 -9.41222 
733 46 3 1.008 0.03 11.7365 8.19312 6.57254 11.7365 -139.354 6.57254 0 -3 0 0.0114894 -0.00754085 -0.00480744 4.13276 5.90846 -1.00521 
4402 276 1 16 -0.4 13.4892 2.14352 7.13761 13.4892 51.3259 154.685 0 1 3 0.000607581 0.00370297 0.00551719 -18.6972 14.3775 -48.5921 
7749 485 2 12.01 0.11 15.5447 6.2753 6.82718 15.5447 104.64 6.82718 0 2 0 0.00418585 0.00750292 -0.00403793 -11.9611 -12.9417 -29.6986 
7756 485 3 1.008 0.03 15.5976 5.60656 5.9592 15.5976 103.971 5.9592 0 2 0 0.00748309 -0.0244009 0.005202 3.24196 2.03856 5.88251 
9506 595 7 12.01 0.35 16.5812 0.95867 2.3157 16.5812 50.141 51.498 0 1 1 -0.00484283 -0.000390497 -0.012327 -49.6552 4.94846 -15.7413 
6879 430 3 1.008 0.03 10.8162 0.449464 6.4479 109.181 49.6318 6.4479 2 1 0 0.0281832 0.00585418 -0.0185048 -2.02902 10.839 7.58855 
5883 368 3 1.008 0.03 16.4716 8.49607 3.03066 213.201 8.49607 -46.1517 4 0 -1 -0.012167 -0.0238961 0.00903752 3.09979 -7.07539 -10.2374 
7752 485 3 1.008 0.03 16.3085 8.46785 5.93775 16.3085 106.833 5.93775 0 2 0 0.00156955 0.00837339 -0.00145171 11.4304 -5.48886 -10.5368 
9509 595 8 19 -0.16 15.3281 0.575762 2.69443 15.3281 49.7581 51.8768 0 1 1 -0.00661867 0.000687279 0.00137608 28.8857 17.8735 -11.8324 
4235 265 3 1.008 0.03 8.83444 8.4282 6.19397 8.83444 8.4282 -42.9884 0 0 -1 -0.0113784 -0.0215624 0.013807 1.77576 -2.00532 5.41328 
9515 595 8 19 -0.16 12.9744 4.537 0.938303 12.9744 53.7193 50.1207 0 1 1 -0.00627188 0.00460286 -0.00130489 28.6107 15.9607 10.2423 
6872 430 3 1.008 0.03 13.0528 0.770815 3.54326 111.418 49.9532 3.54326 2 1 0 -0.0163611 -0.00284838 0.00952979 -9.08905 -0.93433 0.0446004 
9513 595 7 12.01 0.35 14.0543 5.33725 1.1619 14.0543 54.5196 50.3442 0 1 1 -0.000587866 -0.00482548 0.000327434 -0.616769 25.6203 -5.88672 
6876 430 3 1.008 0.03 12.053 2.13373 0.479726 110.418 51.3161 0.479726 2 1 0 0.028797 0.00614668 0.0123843 -14.7104 2.70272 -7.43039 
7655 479 3 1.008 0.03 20.7037 1.347 2.7758 -28.4787 50.5294 2.7758 -1 1 0 -0.0184365 -0.00291065 0.0070015 5.13614 21.8121 -37.2552 
8789 550 2 12.01 0.11 23.7472 5.0339 6.52465 -74.6175 201.763 55.707 -2 4 1 0.00173044 -0.000181216 -0.00954432 12.7795 -3.29772 15.5993 
7654 479 2 12.01 0.11 22.3935 0.595204 6.79611 -26.7888 49.7776 6.79611 -1 1 0 -0.00607008 -0.00963049 0.00228747 -8.63321 0.86145 30.7847 
7960 498 3 1.008 0.03 20.7296 5.28383 0.654972 20.7296 54.4662 49.8373 0 1 1 0.00786782 0.032348 0.00262576 -7.1588 1.97933 1.88689 
3240 203 3 1.008 0.03 24.2604 6.97828 2.63219 73.4428 56.1606 100.997 1 1 2 0.0229262 -0.0155718 0.00455893 -12.3013 5.97756 -0.313361 
3235 203 2 12.01 0.14 23.2067 6.65388 2.71792 72.3891 55.8362 101.083 1 1 2 0.000547246 -5.39966e-05 -0.00589373 35.1932 -45.5677 20.7984 
3245 203 3 1.008 0.03 23.7623 3.97381 3.68607 72.9447 53.1562 102.051 1 1 2 0.0101076 0.00324931 -0.0110927 -13.2009 4.02444 6.16587 
3243 203 3 1.008 0.03 24.2811 3.55269 2.10224 73.4634 52.735 100.467 1 1 2 -0.00941313 -0.0076301 -0.0235699 3.84377 8.6981 4.07571 
3237 203 2 12.01 0.11 24.1154 4.41558 2.7686 73.2977 53.5979 101.133 1 1 2 0.00463302 -0.00163123 -0.00320817 6.35358 14.3075 -19.8871 
3239 203 3 1.008 0.03 23.0437 6.63865 3.82838 72.226 55.821 102.193 1 1 2 -0.0197447 -0.0115473 -0.00369692 -7.19197 -3.16488 -22.9073 
9507 595 8 19 -0.16 17.2529 1.16431 3.40578 17.2529 50.3467 52.5881 0 1 1 -0.00039775 -0.00110502 -0.00233612 17.8164 -9.62586 20.1241 
3233 203 1 16 -0.4 23.234 5.35318 2.07883 72.4163 54.5355 100.444 1 1 2 -0.0038686 0.00826182 -0.000505598 5.64378 -1.39951 27.1228 
3234 203 1 16 -0.4 20.9762 7.25247 2.01658 70.1585 56.4348 100.381 1 1 2 -0.00563098 -0.000750042 0.00234755 -14.8437 -3.1255 9.141 
7962 498 3 1.008 0.03 18.5837 6.50333 0.822967 18.5837 55.6857 50.0053 0 1 1 0.0170083 -0.0201221 -0.0236076 4.7704 -4.15362 -3.90877 
3236 203 2 12.01 0.14 22.3214 7.56789 1.95496 71.5038 56.7502 100.32 1 1 2 0.00329473 0.00581463 0.00305245 40.132 74.2045 23.551 
7751 485 3 1.008 0.03 17.3212 7.23746 5.02567 17.3212 105.602 5.02567 0 2 0 -0.012578 -0.00694324 -0.0166439 -5.30898 8.29764 8.3431 
8800 550 3 1.008 0.03 18.1926 3.86044 4.9579 -80.1721 200.59 54.1402 -2 4 1 -0.0191731 -0.017333 -0.0186563 20.3065 3.10981 11.2521 
3238 203 2 12.01 0.11 20.2867 8.04756 2.95967 69.4691 57.2299 101.324 1 1 2 0.00211059 -0.00526367 0.00395171 -43.4057 -25.7886 2.63081 
8798 550 3 1.008 0.03 19.5792 3.38999 4.07556 -78.7855 200.119 53.2579 -2 4 1 0.00621394 -0.00231536 0.0210865 5.53251 -10.2998 -40.9103 
8790 550 2 12.01 0.11 19.167 3.31959 5.02156 -79.1977 200.049 54.2039 -2 4 1 -0.0061916 -0.00827505 0.00272872 -18.2609 -9.03728 32.6817 
3241 203 3 1.008 0.03 22.6444 8.59662 2.37916 71.8267 57.779 100.744 1 1 2 -0.0347875 -0.00796694 -0.00970702 -29.0314 -37.4921 -15.7997 
3242 203 3 1.008 0.03 22.65 7.67466 0.951205 71.8324 56.857 99.3159 1 1 2 0.00106643 -0.0104294 -0.0168025 1.87911 -9.98094 -17.7799 
9505 595 6 16 -0.53 17.9684 3.04703 1.4191 17.9684 52.2294 50.6015 0 1 1 -0.0137924 0.00771378 0.00177115 -17.827 -14.7408 6.36098 
8794 550 3 1.008 0.03 20.3404 5.39971 4.59048 -78.0243 202.129 53.7728 -2 4 1 -0.00919538 -0.0225282 -0.00309126 5.71967 10.2041 -3.1695 
7745 485 1 16 -0.4 16.8072 6.83412 7.06727 16.8072 105.199 7.06727 0 2 0 0.00348991 0.00054616 0.000357392 26.8694 46.1261 -37.5067 
3248 203 3 1.008 0.03 20.5552 8.01257 4.01747 69.7376 57.1949 102.382 1 1 2 -0.0266787 0.0229126 0.0194592 14.949 2.8274 -4.90396 
8786 550 1 16 -0.4 20.2662 3.79789 5.82601 -78.0985 200.527 55.0084 -2 4 1 -0.00528448 0.00512008 -0.00337588 -42.9656 -19.3985 -0.951182 
8788 550 2 12.01 0.14 20.3531 5.1657 5.6497 -78.0116 201.895 54.832 -2 4 1 0.00161124 -0.00769943 0.00116832 -4.23744 33.6541 26.7159 
8799 550 3 1.008 0.03 18.8712 2.28087 5.27859 -79.4935 199.01 54.4609 -2 4 1 0.017424 0.000217662 0.0138103 9.98857 13.3834 -2.83726 
8793 550 3 1.008 0.03 19.5744 5.74007 6.19193 -78.7903 202.469 55.3743 -2 4 1 0.0174918 0.00912482 0.011968 -3.53333 -14.647 -15.9524 
8785 550 1 16 -0.4 22.5519 4.83203 5.90653 -75.8128 201.561 55.0889 -2 4 1 -0.0053756 0.00293327 0.0018013 13.7881 -5.81652 -37.5413 
8796 550 3 1.008 0.03 24.0597 6.05505 6.59078 -74.305 202.784 55.7731 -2 4 1 -0.0154246 0.00702364 -0.0109363 0.753773 8.78548 -6.30887 
7651 479 2 12.01 0.14 20.7089 0.680278 3.55893 -28.4734 49.8626 3.55893 -1 1 0 -0.00907686 -0.00160355 -3.57953e-05 6.29226 -44.9191 50.2879 
7747 485 2 12.01 0.14 17.1849 7.78957 5.97745 17.1849 106.154 5.97745 0 2 0 -0.00508967 -0.0032513 0.00251776 -42.8056 -25.0931 37.1291 
3247 203 3 1.008 0.03 19.2448 7.66253 3.0015 68.4272 56.8449 101.366 1 1 2 0.00846078 0.00248532 -0.000748906 14.5308 2.04643 -3.1761 
7753 485 3 1.008 0.03 19.285 8.0504 6.0723 19.285 106.415 6.0723 0 2 0 0.00423964 0.00575026 -0.00526948 -1.13125 -2.36971 13.8984 
7656 479 3 1.008 0.03 19.7503 0.82191 4.06737 -29.432 50.0043 4.06737 -1 1 0 0.00281071 -0.0025375 -0.00212901 0.793089 -10.5327 -9.66321 
7657 479 3 1.008 0.03 22.7815 0.81546 4.25791 -26.4008 49.9978 4.25791 -1 1 0 0.0273068 -0.00875094 -0.00147184 0.411121 1.62643 -6.04175 
7664 479 3 1.008 0.03 22.4381 1.65426 7.11112 -26.7443 50.8366 7.11112 -1 1 0 -0.0112383 -0.0283724 0.00822441 -2.8831 -7.45376 -9.45618 
3559 223 3 1.008 0.03 24.2721 7.9757 7.25725 -74.0926 -90.389 56.4396 -2 -2 1 0.008388 -0.00804405 -0.0304511 11.2389 -25.1106 -16.08 
8792 550 3 1.008 0.03 21.7055 6.70064 6.26354 -76.6592 203.43 55.4459 -2 4 1 -0.00376418 -0.00590978 -0.0210308 8.31331 5.21168 -0.0579662 
7652 479 2 12.01 0.14 21.782 1.077 4.59975 -27.4004 50.2593 4.59975 -1 1 0 0.00806292 0.00307335 -0.0101602 5.47753 13.7163 -20.2629 
7658 479 3 1.008 0.03 21.7895 2.17292 4.79169 -27.3928 51.3553 4.79169 -1 1 0 0.00427384 0.0189891 0.0172135 -2.36851 -16.4142 -0.367163 
8787 550 2 12.01 0.14 21.5817 5.63398 6.40257 -76.783 202.363 55.5849 -2 4 1 0.00282469 -0.000447943 -0.00425897 -22.514 -1.6454 2.81066 
8795 550 3 1.008 0.03 24.4659 4.5074 5.91025 -73.8988 201.237 55.0926 -2 4 1 -0.0118884 -0.00636983 -0.000556059 9.69562 -7.6451 9.20867 
2058 129 3 1.008 0.03 2.00822 12.0712 0.509066 51.1906 12.0712 49.6914 1 0 1 0.0290879 0.00773107 0.00751278 -10.1042 -6.54728 1.45377 
7366 461 2 12.01 0.11 0.818316 12.6052 4.50226 50.0007 61.7876 53.6846 1 1 1 -0.00488076 -0.00132415 -0.000642258 32.0291 -9.53956 -15.5319 
7374 461 3 1.008 0.03 1.64715 13.0801 3.97428 50.8295 62.2624 53.1566 1 1 1 -0.0211395 0.0444084 0.0110592 -8.01894 3.3816 -8.77235 
867 55 2 12.01 0.14 2.55349 8.78171 2.63788 -46.6289 -40.4006 2.63788 -1 -1 0 0.00214601 0.00477569 -0.00763126 -22.9886 11.5694 2.85507 
872 55 3 1.008 0.03 1.61593 9.17818 3.0883 -47.5664 -40.0042 3.0883 -1 -1 0 0.00925954 -0.0262674 0.008886 17.3068 0.417366 -4.76019 
873 55 3 1.008 0.03 4.57837 9.31079 2.57166 -44.604 -39.8716 2.57166 -1 -1 0 7.59689e-05 0.00803184 0.0177887 21.1107 1.16047 -7.03699 
868 55 2 12.01 0.14 3.6525 9.83522 2.48281 -45.5298 -39.3471 2.48281 -1 -1 0 0.00310713 0.00451894 -0.0100054 -32.0876 -1.11559 12.0108 
874 55 3 1.008 0.03 3.49814 10.3097 1.54294 -45.6842 -38.8727 1.54294 -1 -1 0 0.026712 0.00804829 -0.0178645 8.61276 3.98568 -19.3549 
866 55 1 16 -0.4 3.44522 10.8611 3.43519 -45.7371 -38.3213 3.43519 -1 -1 0 -0.000838139 0.000385541 2.31711e-05 -26.4344 -4.8557 -11.0098 
4237 265 3 1.008 0.03 7.23412 8.69391 5.77821 7.23412 8.69391 -43.4041 0 0 -1 -0.00645151 -0.0030791 0.0249309 -22.0815 -4.97398 -4.40267 
7376 461 3 1.008 0.03 0.610601 11.6455 4.0461 49.793 60.8278 53.2285 1 1 1 -0.0106495 -0.0266362 0.0145088 0.0966754 -5.04549 -2.83438 
2492 156 3 1.008 0.03 6.15733 12.702 1.37027 6.15733 12.702 50.5526 0 0 1 -0.0210466 0.00681598 0.0275471 -4.64238 -12.3568 12.1887 
2057 129 3 1.008 0.03 2.11022 13.6976 1.109 51.2926 13.6976 50.2914 1 0 1 0.000568765 0.00338041 0.0153358 2.45556 -5.29261 -24.2727 
2493 156 3 1.008 0.03 7.62496 11.8821 0.763384 7.62496 11.8821 49.9457 0 0 1 -0.0133743 -0.0248093 0.00353485 1.7333 -17.1661 -4.95851 
2486 156 2 12.01 0.11 4.90191 14.5319 4.05429 4.90191 14.5319 53.2366 0 0 1 -0.0118544 -0.00412805 -0.00678656 -0.171058 16.9528 -16.0988 
2496 156 3 1.008 0.03 4.19627 13.9156 3.53298 4.19627 13.9156 52.7153 0 0 1 0.00957101 0.00204933 0.00674554 -5.20653 -8.38396 -7.64497 
2482 156 1 16 -0.4 6.12537 14.6709 3.36625 6.12537 14.6709 52.5486 0 0 1 -2.52612e-05 -0.0010037 -0.00174945 20.4012 -12.3511 3.29396 
2495 156 3 1.008 0.03 4.43968 15.4865 4.13538 4.43968 15.4865 53.3177 0 0 1 -0.00391133 0.00317145 0.030683 -0.150442 12.5657 4.8668 
870 55 2 12.01 0.11 4.57901 11.197 4.11512 -44.6033 -37.9854 4.11512 -1 -1 0 -0.0028402 0.00714878 -0.00216673 21.6595 36.7543 31.966 
2494 156 3 1.008 0.03 5.04701 14.1658 5.05021 5.04701 14.1658 54.2326 0 0 1 -0.00676595 -0.0070184 -0.0249611 3.39801 -5.00904 10.951 
879 55 3 1.008 0.03 4.93912 10.3637 4.68536 -44.2432 -38.8187 4.68536 -1 -1 0 0.00014839 0.0247853 0.0139193 4.10273 -8.86502 9.22812 
878 55 3 1.008 0.03 4.41704 12.0755 4.79964 -44.7653 -37.1069 4.79964 -1 -1 0 0.0246434 0.0153715 -0.0140526 -3.04258 -28.5512 -10.5806 
880 55 3 1.008 0.03 5.37676 11.5291 3.47552 -43.8056 -37.6533 3.47552 -1 -1 0 -0.0011641 -0.000107353 0.00566084 5.94817 -0.903841 -10.8782 
5467 342 3 1.008 0.03 1.07614 15.7408 2.65362 1.07614 64.9232 2.65362 0 1 0 0.0104209 -0.021673 -0.00655311 6.54853 12.8493 -0.541582 
2484 156 2 12.01 0.14 6.18414 15.3801 2.12999 6.18414 15.3801 51.3123 0 0 1 -0.00592218 -0.00643928 0.00191064 -17.6181 40.6957 47.934 
2489 156 3 1.008 0.03 6.08693 16.4884 2.37529 6.08693 16.4884 51.5576 0 0 1 0.0305318 -0.0423477 -0.00310985 9.46237 -31.5509 -6.03725 
2490 156 3 1.008 0.03 5.31431 15.2088 1.5843 5.31431 15.2088 50.7667 0 0 1 0.00446022 0.000765401 0.0123524 -19.6953 -12.7534 -26.6432 
4225 265 1 16 -0.4 8.29173 10.4437 6.3252 8.29173 10.4437 -42.8571 0 0 -1 0.00386617 0.00101023 0.00349789 -28.2236 -49.3295 30.704 
5469 342 3 1.008 0.03 2.61668 16.0937 1.80606 2.61668 65.276 1.80606 0 1 0 -0.0272192 -0.0066057 0.0182148 -7.44966 -2.1438 16.1223 
2483 156 2 12.01 0.14 7.50749 15.06 1.48481 7.50749 15.06 50.6672 0 0 1 0.00206867 -0.00519948 -0.00572191 -1.02053 -12.0165 -3.46765 
2487 156 3 1.008 0.03 8.19972 15.013 2.33825 8.19972 15.013 51.5206 0 0 1 0.0187271 -0.0352963 0.0151011 7.03279 0.886244 -17.2318 
4229 265 2 12.01 0.11 7.95658 8.99822 6.49486 7.95658 8.99822 -42.6875 0 0 -1 0.00296476 -0.00215062 0.0114221 43.9245 50.8233 -17.3875 
2485 156 2 12.01 0.11 7.23935 12.6854 1.34865 7.23935 12.6854 50.531 0 0 1 0.00482067 0.00776805 -0.00836216 28.5117 47.3154 22.5131 
2491 156 3 1.008 0.03 7.77891 12.7698 2.36488 7.77891 12.7698 51.5472 0 0 1 -0.00740567 -0.0107716 -0.0451569 -26.2735 -13.7618 -33.5812 
2481 156 1 16 -0.4 7.53525 13.8895 0.632577 7.53525 13.8895 49.8149 0 0 1 -0.0055295 0.00676789 -0.0025194 -0.236737 0.768382 21.0975 
2488 156 3 1.008 0.03 7.70692 15.9024 0.853977 7.70692 15.9024 50.0363 0 0 1 0.0130334 0.00449079 0.00103211 12.317 9.47594 -5.45935 
4232 265 3 1.008 0.03 8.21757 10.5873 4.22141 8.21757 10.5873 -44.9609 0 0 -1 -0.0101273 -0.00311392 -0.0228926 -8.79958 3.63468 13.9187 
4234 265 3 1.008 0.03 8.20092 12.8917 5.36718 8.20092 12.8917 -43.8152 0 0 -1 0.00807958 -0.00789394 -0.0168446 13.6463 -17.2291 -4.64822 
2992 187 3 1.008 0.03 1.80958 9.02451 5.63925 1.80958 9.02451 104.004 0 0 2 -0.0192826 0.0242571 0.0119449 -6.98254 -8.78065 -24.9887 
5991 375 3 1.008 0.03 8.16673 15.1992 6.34929 8.16673 15.1992 6.34929 0 0 0 0.0221447 -0.0256542 -0.0086502 -7.72541 -13.6548 -1.01715 
5987 375 2 12.01 0.14 8.31452 16.1009 5.78679 8.31452 16.1009 5.78679 0 0 0 -0.00336446 -0.00755222 0.00159691 1.3853 -14.909 -40.5343 
5461 342 2 12.01 0.11 1.89898 16.4557 2.57521 1.89898 65.638 2.57521 0 1 0 0.00112035 0.0044747 0.00630739 27.8833 -13.8673 2.57352 
5457 342 1 16 -0.4 2.53261 16.6903 3.84482 2.53261 65.8726 3.84482 0 1 0 -0.00222779 -0.00547492 -0.00637285 -5.00432 6.05421 -8.68579 
5992 375 3 1.008 0.03 7.40701 16.2851 5.16194 7.40701 16.2851 5.16194 0 0 0 -0.00176016 -0.00529535 -0.0361041 12.1585 3.59883 14.6137 
7375 461 3 1.008 0.03 1.30456 12.415 5.43655 50.4869 61.5973 54.6189 1 1 1 -0.0077848 -0.0250457 -0.0139909 -6.684 -2.31147 18.4952 
2982 187 2 12.01 0.11 2.35724 8.69471 6.48436 2.35724 8.69471 104.849 0 0 2 -0.00179218 0.00458883 -0.00467429 -45.2792 2.15356 54.3126 
10017 629 8 19 -0.16 3.56821 13.1365 6.82085 3.56821 13.1365 6.82085 0 0 0 -0.00476513 0.00173975 0.00262278 25.017 -12.3641 9.53 
2990 187 3 1.008 0.03 2.22264 9.65925 7.06536 2.22264 9.65925 105.43 0 0 2 0.0378418 0.0214253 -0.0132806 10.8849 -32.0722 -2.72276 
724 46 2 12.01 0.14 11.5359 8.7605 2.38788 11.5359 -138.787 2.38788 0 -3 0 0.000623343 0.00494814 0.00114598 -0.905587 -3.86383 13.192 
729 46 3 1.008 0.03 12.3014 8.71857 1.62172 12.3014 -138.828 1.62172 0 -3 0 -0.022737 -0.0118692 0.0080623 5.19546 3.4242 -2.58564 
727 46 3 1.008 0.03 12.5374 9.25906 4.21486 12.5374 -138.288 4.21486 0 -3 0 -0.00194509 0.00692607 -0.0033818 11.8241 37.8096 19.9627 
736 46 3 1.008 0.03 11.6397 10.571 0.652735 11.6397 -136.976 0.652735 0 -3 0 -0.0121461 0.000801489 0.00476486 -33.6567 9.67178 11.2148 
5884 368 3 1.008 0.03 14.9421 8.78823 3.76104 211.671 8.78823 -45.4213 4 0 -1 0.00103493 -0.0164072 -0.00430594 -0.562114 2.1773 11.5046 
5994 375 3 1.008 0.03 9.30962 15.0156 4.21482 9.30962 15.0156 4.21482 0 0 0 0.0171016 -0.0196425 0.0205787 5.41514 7.42847 14.3782 
4238 265 3 1.008 0.03 11.2588 11.0032 6.66864 11.2588 11.0032 -42.5137 0 0 -1 -0.0126703 -0.00267911 -0.0204229 -2.7199 0.884418 -2.47979 
4231 265 3 1.008 0.03 9.64696 10.055 4.84435 9.64696 10.055 -44.338 0 0 -1 -0.00384783 -0.0131293 -0.0246685 4.44611 24.5056 9.60682 
722 46 1 16 -0.4 10.9282 10.0279 2.50532 10.9282 -137.519 2.50532 0 -3 0 -0.00388482 0.000543893 0.00907879 -4.65652 3.21666 -10.7633 
734 46 3 1.008 0.03 9.90848 10.072 0.606869 9.90848 -137.475 0.606869 0 -3 0 0.0188557 0.00981469 -0.0246496 -3.82013 -10.3821 3.17181 
726 46 2 12.01 0.11 10.6471 10.5719 1.21929 10.6471 -136.975 1.21929 0 -3 0 -0.0101639 -0.00395152 -0.00440268 40.2949 0.770877 -6.7596 
9641 604 7 12.01 0.35 13.9457 15.7941 6.27237 13.9457 64.9764 6.27237 0 1 0 0.00776238 -0.0103083 0.00333473 -24.9719 46.3941 -9.9683 
5885 368 3 1.008 0.03 14.9905 9.08602 2.04193 211.72 9.08602 -47.1404 4 0 -1 0.0299207 0.00079356 -0.0113778 25.2987 -4.37292 20.6045 
5877 368 2 12.01 0.11 15.6077 9.14385 2.99456 212.337 9.14385 -46.1878 4 0 -1 0.00101357 -0.00905127 0.0068015 -18.5625 9.80306 -26.2879 
5873 368 1 16 -0.4 16.0549 10.4763 3.19785 212.784 10.4763 -45.9845 4 0 -1 0.00177239 0.00128931 -0.00122027 -15.2212 9.34374 11.1137 
4233 265 3 1.008 0.03 9.4508 12.6461 4.1841 9.4508 12.6461 -44.9983 0 0 -1 -0.00966502 -0.00117109 -0.0053921 5.23985 -0.914349 -9.75948 
5882 368 3 1.008 0.03 16.2678 12.976 4.17795 212.997 12.976 -45.0044 4 0 -1 -0.0107112 -0.0355695 0.0220157 2.24647 -4.00894 5.86595 
4228 265 2 12.01 0.14 9.11418 12.2817 5.13869 9.11418 12.2817 -44.0437 0 0 -1 0.00357065 0.000706468 -0.00701908 -15.0194 14.6794 -2.51309 
5878 368 2 12.01 0.11 16.2345 14.6632 2.29111 212.964 14.6632 -46.8912 4 0 -1 -0.00477247 -0.000222721 -0.000959786 1.06659 -1.98109 11.5255 
5888 368 3 1.008 0.03 15.5843 15.5516 2.45731 212.314 15.5516 -46.725 4 0 -1 0.0258313 -0.0141342 -0.0309455 1.67353 -18.1123 -1.52954 
5881 368 3 1.008 0.03 14.6174 13.5659 3.90069 211.347 13.5659 -45.2817 4 0 -1 0.0267509 0.00193113 -0.0244926 2.04571 -14.5965 3.04862 
5887 368 3 1.008 0.03 16.7017 14.7236 1.34586 213.431 14.7236 -47.8365 4 0 -1 -0.0149656 -0.0139852 0.0238213 8.26127 12.3425 -21.0797 
735 46 3 1.008 0.03 10.2712 11.5726 1.38117 10.2712 -135.974 1.38117 0 -3 0 0.00350088 0.0283015 -0.0228865 2.5816 8.0718 -3.50249 
5874 368 1 16 -0.4 15.6811 13.362 2.25428 212.411 13.362 -46.9281 4 0 -1 0.00564887 0.00056117 -0.00105135 -3.72354 7.48229 -5.47949 
6000 375 3 1.008 0.03 10.4749 15.8349 2.24372 10.4749 15.8349 2.24372 0 0 0 -0.00329199 -0.0234309 -0.000106526 -0.662016 2.60255 4.40628 
5876 368 2 12.01 0.14 15.4002 12.8796 3.53491 212.13 12.8796 -45.6474 4 0 -1 -0.00142163 -0.00121395 0.000505738 -15.1462 -19.5649 -9.30061 
5879 368 3 1.008 0.03 14.3482 11.2746 2.46 211.078 11.2746 -46.7223 4 0 -1 -0.0171689 0.0317039 -0.00944425 -17.2207 0.236992 9.32446 
5875 368 2 12.01 0.14 14.9349 11.369 3.37339 211.664 11.369 -45.809 4 0 -1 0.00751258 -0.00199582 0.00163384 40.0175 32.1491 6.25659 
4227 265 2 12.01 0.14 8.84972 10.7884 5.09974 8.84972 10.7884 -44.0826 0 0 -1 -0.00328152 -0.00161952 -0.00411369 -3.3903 -34.5974 -37.6679 
5880 368 3 1.008 0.03 14.4723 11.1792 4.34465 211.202 11.1792 -44.8377 4 0 -1 0.00485777 -0.0161776 0.0104794 -13.2625 -12.3843 -9.94881 
5999 375 3 1.008 0.03 11.7195 16.3287 3.5383 11.7195 16.3287 3.5383 0 0 0 -0.0130948 0.0066707 -0.00206711 -33.8168 -4.24712 -14.9967 
5993 375 3 1.008 0.03 10.3682 15.6263 5.4565 10.3682 15.6263 5.4565 0 0 0 -0.00186697 -0.0103708 -0.0368529 26.0142 -0.183725 8.42601 
9643 604 8 19 -0.16 14.5218 15.4058 5.16193 14.5218 64.5881 5.16193 0 1 0 -0.000535071 -0.00170807 0.000169633 11.7312 -12.8673 -3.55438 
9644 604 8 19 -0.16 12.6384 15.9539 5.9247 12.6384 65.1363 5.9247 0 1 0 -0.00653626 -0.00337331 0.000924282 31.4034 2.47218 15.7365 
4226 265 1 16 -0.4 10.0603 12.6084 6.10276 10.0603 12.6084 -43.0796 0 0 -1 -0.00295544 -0.000987741 -0.0037035 9.01788 15.444 20.1341 
4239 265 3 1.008 0.03 11.5677 11.6365 5.03906 11.5677 11.6365 -44.1433 0 0 -1 0.00418451 0.000606968 0.00799804 0.280682 0.419067 -0.932369 
4230 265 2 12.01 0.11 11.2841 11.9091 6.05609 11.2841 11.9091 -43.1263 0 0 -1 0.00411795 -0.00185902 0.00194669 31.6403 10.6627 8.11939 