ITEM: TIMESTEP
250000
ITEM: NUMBER OF ATOMS
10479
ITEM: BOX BOUNDS pp pp pp
4.0882558190751794e-01 4.9591174418091420e+01
4.0882558190751794e-01 4.9591174418091420e+01
4.0882558190751794e-01 4.9591174418091420e+01
ITEM: ATOMS id mol type mass q x y z xu yu zu ix iy iz vx vy vz fx fy fz 
7690 481 3 1.008 0.03 5.15647 6.09332 1.5706 5.15647 104.458 50.7529 0 2 1 -0.00934855 -0.0255781 0.00207069 14.6005 19.9401 -10.5229 
7684 481 2 12.01 0.14 4.89678 5.1043 1.27821 4.89678 103.469 50.4606 0 2 1 -0.00149933 -0.0086798 -0.0030356 -26.2463 5.71743 55.4343 
7686 481 2 12.01 0.11 7.1346 4.65629 0.825165 7.1346 103.021 50.0075 0 2 1 0.00147316 -0.000816932 0.0038582 -0.788768 33.5709 -39.3672 
7681 481 1 16 -0.4 2.93043 3.81073 1.85514 2.93043 102.175 51.0375 0 2 1 0.00151752 -0.00239795 0.00204722 3.06 9.26794 24.1997 
7683 481 2 12.01 0.14 3.7595 4.89247 2.30848 3.7595 103.257 51.4908 0 2 1 0.00453736 0.00698716 0.00266037 -17.2151 -3.57248 -25.301 
7687 481 3 1.008 0.03 3.13709 5.78681 2.427 3.13709 104.152 51.6093 0 2 1 -0.0206541 -0.00536381 -0.0163237 0.909429 -1.95042 -11.9203 
7688 481 3 1.008 0.03 4.08983 4.82609 3.31573 4.08983 103.191 52.4981 0 2 1 0.0360148 0.036551 -0.0160353 13.4092 -15.316 11.1673 
1283 81 2 12.01 0.14 7.30035 2.2388 3.45103 7.30035 51.4211 3.45103 0 1 0 0.00312636 -0.00329347 -0.00545128 1.17802 -2.09311 -11.2792 
7682 481 1 16 -0.4 5.9501 4.25187 1.54838 5.9501 102.617 50.7307 0 2 1 0.00402955 -0.00217906 -0.00266808 31.0324 3.46005 -4.26849 
1287 81 3 1.008 0.03 6.24144 2.3598 3.56353 6.24144 51.5421 3.56353 0 1 0 -0.0126346 -0.00579921 0.0150453 -8.12241 9.59326 18.1637 
159 10 3 1.008 0.03 3.28232 1.05991 5.84482 101.647 50.2423 5.84482 2 1 0 -0.000917391 -0.0184345 -0.0482779 14.638 33.1553 12.9021 
1281 81 1 16 -0.4 8.09647 1.92055 4.59997 8.09647 51.1029 4.59997 0 1 0 0.000783701 0.0014792 -0.000762636 -6.34062 7.26407 -11.4404 
5807 363 3 1.008 0.03 5.18071 5.55324 5.0419 54.3631 54.7356 103.407 1 1 2 -0.023848 -0.0117491 -0.0149835 0.963627 -10.9267 14.0769 
1284 81 2 12.01 0.14 7.41356 1.17126 2.34934 7.41356 50.3536 2.34934 0 1 0 0.00322653 0.0064739 -0.00601415 -0.725093 43.3446 -66.4395 
1199 75 3 1.008 0.03 7.54002 6.4868 3.76795 -41.6423 6.4868 3.76795 -1 0 0 0.012309 0.0254874 -0.00276965 0.241733 7.73985 5.65801 
1296 81 3 1.008 0.03 4.72376 1.01058 2.89737 4.72376 50.1929 2.89737 0 1 0 0.0151458 0.0068235 -0.011791 10.5806 9.71803 6.22493 
8775 549 3 1.008 0.03 1.15657 5.80803 1.20139 -48.0258 -43.3743 1.20139 -1 -1 0 -0.0209313 0.015956 -0.0296499 0.635123 6.29275 -2.96575 
1193 75 3 1.008 0.03 7.43521 8.51801 5.58763 -41.7471 8.51801 5.58763 -1 0 0 0.0160254 -0.00815215 -0.0248252 -11.6769 -4.63992 20.0223 
7685 481 2 12.01 0.11 2.07535 3.35108 2.90791 2.07535 101.716 52.0903 0 2 1 0.00227703 0.00378231 0.00500519 19.3746 -58.3983 -19.6071 
7692 481 3 1.008 0.03 2.60901 2.65335 3.62285 2.60901 101.018 52.8052 0 2 1 0.00015744 -0.0030919 0.0143631 -7.69353 27.3749 -13.3361 
5806 363 3 1.008 0.03 6.0942 4.12217 5.43586 55.2765 53.3045 103.801 1 1 2 0.0290545 0.00255476 0.00585817 10.5078 -14.7573 -8.93447 
5798 363 2 12.01 0.11 5.28197 4.71592 5.77129 54.4643 53.8983 104.136 1 1 2 0.00176726 -0.0043875 -0.00226696 -21.6752 9.43229 -14.8404 
7693 481 3 1.008 0.03 1.58839 4.1576 3.43411 1.58839 102.522 52.6165 0 2 1 -0.004334 -0.0215053 0.000398757 -9.74864 0.308916 2.91191 
7691 481 3 1.008 0.03 1.41056 2.60714 2.3806 1.41056 100.972 51.5629 0 2 1 0.0199008 -0.00698691 0.00428795 1.41762 26.688 16.5939 
1289 81 3 1.008 0.03 7.20025 1.49182 1.24419 7.20025 50.6742 1.24419 0 1 0 0.00460466 0.00388513 -0.0125535 5.35466 -1.73495 56.4938 
1290 81 3 1.008 0.03 8.46193 0.958427 2.32292 8.46193 50.1408 2.32292 0 1 0 0.00528432 -0.00322439 0.00846161 8.5619 -15.9454 -2.09436 
7695 481 3 1.008 0.03 7.9956 4.18531 1.27367 7.9956 102.55 50.456 0 2 1 -0.00774318 0.0234613 0.00374381 6.3365 -7.0921 -5.3784 
1288 81 3 1.008 0.03 7.64567 3.2234 3.15088 7.64567 52.4058 3.15088 0 1 0 -0.00876697 0.00679411 -0.00546395 3.92946 -3.43031 -4.63843 
5794 363 1 16 -0.4 4.06723 3.95336 5.92001 53.2496 53.1357 104.285 1 1 2 0.00873453 0.00319947 -0.0037045 7.3827 18.6093 -3.42726 
5802 363 3 1.008 0.03 2.7059 5.50622 5.36209 51.8882 54.6886 103.727 1 1 2 -0.0130502 -0.0191866 -0.00113169 12.0131 -8.5758 13.7327 
1291 81 3 1.008 0.03 6.44292 1.83915 5.73876 6.44292 51.0215 5.73876 0 1 0 0.0206876 0.0115562 -0.00677904 -5.43108 5.01688 15.7135 
1200 75 3 1.008 0.03 6.82935 7.8589 2.99518 -42.353 7.8589 2.99518 -1 0 0 -0.0205605 0.020102 -0.00793032 -25.6625 18.932 -8.53446 
1190 75 2 12.01 0.11 7.74155 7.45922 3.30165 -41.4408 7.45922 3.30165 -1 0 0 0.00083918 0.00677374 -0.002039 63.3428 -11.2976 29.9328 
1198 75 3 1.008 0.03 8.30929 7.19302 2.43045 -40.8731 7.19302 2.43045 -1 0 0 -0.00209371 0.0027701 -0.00961126 1.00751 -1.54658 -12.5429 
7694 481 3 1.008 0.03 7.42649 5.7694 0.754088 7.42649 104.134 49.9364 0 2 1 0.000777796 -0.00745226 0.000501746 -21.3206 -37.7459 14.6068 
5328 333 3 1.008 0.03 3.65201 7.55818 4.82447 52.8344 105.923 54.0068 1 2 1 0.00687258 0.0257947 -0.00469437 -6.78506 3.9399 13.1854 
5318 333 2 12.01 0.11 3.39496 8.51008 5.32318 52.5773 106.875 54.5055 1 2 1 0.00510563 0.00313841 -0.00480171 11.1406 0.199966 -8.55067 
8679 543 3 1.008 0.03 1.28599 8.40541 2.95082 -47.8964 57.5878 101.316 -1 1 2 0.00755614 -0.0046404 0.00603216 -1.02305 23.2462 -13.286 
5326 333 3 1.008 0.03 2.34302 8.52216 5.68334 51.5254 106.887 54.8657 1 2 1 0.017693 -0.0103803 0.00897991 16.2576 -0.975231 0.982275 
1285 81 2 12.01 0.11 7.34076 1.26812 5.57481 7.34076 50.4505 5.57481 0 1 0 -0.00173555 0.00187376 -0.00104182 -13.047 -6.11209 -35.9069 
158 10 3 1.008 0.03 1.83211 0.551305 4.9836 100.197 49.7337 4.9836 2 1 0 -0.0106819 -0.00458571 -0.0109665 -6.44427 10.5853 -7.15188 
5801 363 3 1.008 0.03 2.07352 4.2096 6.20398 51.2559 53.3919 104.569 1 1 2 -0.00597685 0.0155077 0.0127285 -22.6559 -22.5917 -1.99034 
5808 363 3 1.008 0.03 5.62708 5.09324 6.70775 54.8094 54.2756 105.072 1 1 2 -0.00124243 0.00821082 -0.0132583 1.92136 8.36115 13.3404 
1293 81 3 1.008 0.03 7.95976 1.16296 6.41636 7.95976 50.3453 6.41636 0 1 0 -0.0223816 -0.00687684 -0.0103602 7.32217 -3.75588 26.8444 
8681 543 3 1.008 0.03 1.98084 8.50584 0.545632 -47.2015 57.6882 98.9103 -1 1 2 -0.00436799 -0.000490362 0.0103251 11.3 14.6225 4.60734 
5796 363 2 12.01 0.14 2.9345 4.79546 6.19175 52.1168 53.9778 104.556 1 1 2 -0.00465791 -0.00111777 -0.00791308 10.9702 19.9863 -16.3306 
795 50 3 1.008 0.03 10.422 1.86562 2.62609 59.6044 1.86562 2.62609 1 0 0 0.00558238 0.00394748 0.0208879 -7.41122 7.8821 0.668599 
7645 478 3 1.008 0.03 16.1559 1.2215 3.62176 65.3382 50.4039 101.986 1 1 2 -0.00471116 0.0178166 0.000185774 -8.12202 -6.80363 0.954422 
5941 372 2 12.01 0.11 11.6707 5.44779 4.03255 11.6707 103.812 53.2149 0 2 1 -0.00193462 -0.000968045 0.00427566 -63.8823 -1.83566 -49.2416 
5949 372 3 1.008 0.03 11.3462 5.34268 2.95024 11.3462 103.707 52.1326 0 2 1 -0.015702 0.00213315 0.0233573 6.40224 1.52492 29.9029 
2537 159 3 1.008 0.03 15.411 2.78387 1.8346 15.411 51.9662 51.0169 0 1 1 -0.0073856 -0.008016 -0.000507677 -2.72189 -1.8151 4.8113 
2532 159 2 12.01 0.14 15.521 3.84671 2.05764 15.521 53.0291 51.24 0 1 1 -0.0101577 -0.000467214 -0.00114005 21.148 -0.703893 13.0777 
2538 159 3 1.008 0.03 14.9309 4.08217 2.95129 14.9309 53.2645 52.1336 0 1 1 0.00221517 -0.0225957 0.00920321 -3.44787 1.7365 -8.75333 
2530 159 1 16 -0.4 15.2249 4.53241 0.850753 15.2249 53.7148 50.0331 0 1 1 -0.00300386 -0.0065606 0.00254147 -4.36521 4.51283 10.9461 
5937 372 1 16 -0.4 12.9744 5.11811 4.14135 12.9744 103.483 53.3237 0 2 1 -0.00350359 1.75552e-05 0.00585069 40.5521 -11.1082 17.619 
1186 75 1 16 -0.4 8.67539 8.31263 4.07586 -40.507 8.31263 4.07586 -1 0 0 -0.00216293 0.00447649 -0.00229905 -44.5199 -12.4705 -19.3414 
1526 96 2 12.01 0.11 16.5892 7.41075 1.0498 16.5892 56.5931 50.2322 0 1 1 0.000158669 -0.0092427 -0.00802265 -53.2713 1.85192 6.45872 
5945 372 3 1.008 0.03 15.1318 5.65359 4.99892 15.1318 104.018 54.1813 0 2 1 0.0361442 -0.0124243 0.0470275 19.4928 29.0559 -30.6999 
5939 372 2 12.01 0.14 13.3314 4.78088 5.48256 13.3314 103.146 54.6649 0 2 1 0.000398704 -0.00205395 -0.000232841 -22.2483 -3.70266 33.4634 
5938 372 1 16 -0.4 15.629 3.83061 5.64115 15.629 102.195 54.8235 0 2 1 -0.00499745 -0.00406473 -0.00543909 3.14355 -13.3919 6.53853 
5940 372 2 12.01 0.14 14.8256 4.97958 5.70547 14.8256 103.344 54.8878 0 2 1 -0.000514166 0.0020072 0.00321471 -13.9564 -5.31601 4.76466 
5947 372 3 1.008 0.03 10.9502 5.00573 4.68468 10.9502 103.37 53.867 0 2 1 0.0317344 0.0182999 -0.0279322 -0.859984 -31.122 4.83743 
5948 372 3 1.008 0.03 11.3748 6.40227 4.33747 11.3748 104.767 53.5198 0 2 1 -0.000894174 0.0222426 0.0148493 12.3617 35.9819 4.08363 
2542 159 3 1.008 0.03 13.1138 4.7109 1.32788 13.1138 53.8933 50.5102 0 1 1 0.00779178 0.00983986 0.0201968 -4.03266 14.1784 25.0071 
2534 159 2 12.01 0.11 13.8365 4.33219 0.657796 13.8365 53.5145 49.8401 0 1 1 0.000223875 -0.00197937 0.00457268 -21.7578 -9.01642 -73.6366 
797 50 3 1.008 0.03 11.5054 3.10384 1.96226 60.6877 3.10384 1.96226 1 0 0 -0.0120804 -0.0143075 -0.0161682 -6.71294 20.8535 -19.03 
796 50 3 1.008 0.03 11.7987 2.48555 3.50501 60.981 2.48555 3.50501 1 0 0 0.0190194 0.0103051 0.0031857 4.82655 -16.5029 -14.3671 
785 50 1 16 -0.4 12.0909 1.15264 1.7613 61.2733 1.15264 1.7613 1 0 0 -0.00280861 -0.00539615 0.0066391 13.9393 -2.15391 8.59173 
5944 372 3 1.008 0.03 13.1485 3.72092 5.68681 13.1485 102.086 54.8692 0 2 1 -0.0197298 0.034865 -0.0134525 -5.76471 2.79148 -4.97014 
789 50 2 12.01 0.11 11.4401 2.20016 2.49095 60.6225 2.20016 2.49095 1 0 0 0.00318385 0.00725903 0.00482419 1.31729 -19.7039 14.9406 
1836 115 3 1.008 0.03 10.9709 1.14687 5.59463 10.9709 1.14687 -141.952 0 0 -3 -0.0436893 0.0123217 0.00513117 -19.3819 13.5773 -1.86025 
1536 96 3 1.008 0.03 15.5878 6.964 1.39971 15.5878 56.1463 50.5821 0 1 1 -0.0114754 0.0256047 0.0157751 34.1231 18.1985 -17.6902 
5943 372 3 1.008 0.03 12.7032 5.32396 6.28203 12.7032 103.689 55.4644 0 2 1 -0.00767982 -0.000213156 0.00805618 26.276 -12.2001 -34.2063 
1535 96 3 1.008 0.03 16.4082 8.45931 0.690935 16.4082 57.6417 49.8733 0 1 1 -0.00472136 -0.000922183 0.00947618 4.74379 -23.3342 2.27882 
787 50 2 12.01 0.14 11.5245 0.820232 0.485944 60.7068 0.820232 0.485944 1 0 0 0.00303055 -0.00195592 -0.00247437 -31.2093 23.3939 6.98359 
791 50 3 1.008 0.03 10.4161 0.711124 0.580123 59.5985 0.711124 0.580123 1 0 0 -0.0229581 0.014029 0.0201376 19.781 -8.24975 0.676932 
5023 314 3 1.008 0.03 8.91762 3.62841 6.77251 107.282 3.62841 55.9549 2 0 1 -0.00303431 -0.0410292 -0.00994994 -0.0563569 9.82886 30.9952 
5946 372 3 1.008 0.03 14.9856 5.48484 6.61499 14.9856 103.85 55.7973 0 2 1 -0.00244132 -0.00158431 0.0178833 -2.98584 10.2239 25.1741 
1576 99 3 1.008 0.03 12.2031 7.71638 2.85222 61.3855 -41.466 52.0346 1 -1 1 0.00202666 -0.0241054 0.00685286 5.90237 27.7318 -23.0484 
1571 99 2 12.01 0.14 12.3551 8.582 2.13334 61.5374 -40.6003 51.3157 1 -1 1 -0.00152122 -0.00282613 9.68439e-05 -3.06449 -17.1502 9.31634 
1569 99 1 16 -0.4 13.3662 8.24441 1.15579 62.5486 -40.9379 50.3381 1 -1 1 -0.00211639 -1.51537e-05 -0.000941933 -10.5705 3.52717 -9.14777 
2544 159 3 1.008 0.03 13.5451 3.30306 0.42668 13.5451 52.4854 49.609 0 1 1 0.00333834 -0.0113428 -0.0371032 8.84004 -3.41769 12.4725 
1837 115 3 1.008 0.03 12.1205 0.535155 6.69496 12.1205 0.535155 -140.852 0 0 -3 0.00897368 -0.030152 0.000580938 4.01806 -10.5631 -9.14676 
10253 645 5 32.06 1.02 20.5931 0.605718 4.46449 20.5931 49.7881 4.46449 0 1 0 -0.00233114 0.00210973 -0.00176838 -3.19744 -3.43296 -2.56961 
9674 606 8 19 -0.16 23.3157 7.47778 0.489292 23.3157 56.6601 49.6716 0 1 1 -0.00224387 -0.000245792 -0.00305452 -11.7928 -15.0881 2.60687 
10260 645 5 32.06 1.02 23.3661 0.578627 3.53866 23.3661 49.761 3.53866 0 1 0 -0.000142369 -0.00249315 0.00141142 44.7223 35.3334 17.6038 
1534 96 3 1.008 0.03 17.1391 7.46592 1.958 17.1391 56.6483 51.1403 0 1 1 -0.00190501 -0.0201778 -0.00796446 14.8427 3.17715 13.7218 
9672 606 8 19 -0.16 24.9431 6.9957 1.64234 24.9431 56.178 50.8247 0 1 1 -0.00472618 0.00326365 0.00174708 12.5637 -14.8857 4.75947 
2536 159 3 1.008 0.03 17.3226 4.91274 2.92899 17.3226 54.0951 52.1113 0 1 1 -0.0154132 -0.019106 0.00930442 -5.30994 38.5999 19.4538 
2531 159 2 12.01 0.14 17.0033 4.09694 2.37947 17.0033 53.2793 51.5618 0 1 1 0.00581841 0.0108114 0.000393074 13.5257 -59.9806 -23.0075 
2535 159 3 1.008 0.03 17.4047 3.23198 2.95176 17.4047 52.4143 52.1341 0 1 1 -0.00395476 0.0105107 0.0163649 -12.5017 9.33003 -2.47026 
9650 604 8 19 -0.16 17.4337 7.84176 5.61801 17.4337 57.0241 5.61801 0 1 0 0.000157021 -0.000142537 0.00419433 -11.4641 -2.31947 0.228433 
9648 604 7 12.01 0.35 18.6521 8.30365 5.46121 18.6521 57.486 5.46121 0 1 0 -0.00865318 -0.00534405 -0.00140823 3.31273 -7.08261 -30.5928 
2529 159 1 16 -0.4 17.6649 4.10226 1.11157 17.6649 53.2846 50.2939 0 1 1 0.00432763 -0.0014608 0.000911349 8.98226 -11.0011 21.0536 
9671 606 7 12.01 0.35 23.7128 6.59901 1.40837 23.7128 55.7814 50.5907 0 1 1 5.00036e-05 0.00204073 0.0020238 -3.79512 17.9517 -4.7375 
10261 645 6 16 -0.53 24.4011 1.63137 3.55549 24.4011 50.8137 3.55549 0 1 0 -0.00595179 -0.00236615 0.00229083 -29.3562 -18.6582 -4.58854 
400 25 3 1.008 0.03 22.3217 4.67755 3.66109 22.3217 53.8599 52.8434 0 1 1 0.00400902 0.0108169 0.0022353 -9.97265 -5.68583 -2.46211 
2533 159 2 12.01 0.11 19.0416 3.74432 1.30362 19.0416 52.9267 50.486 0 1 1 0.000304345 -0.00289239 0.000618905 5.45311 -6.17056 1.98591 
2539 159 3 1.008 0.03 19.289 2.74216 1.71815 19.289 51.9245 50.9005 0 1 1 -0.0175475 -0.00816834 0.0178802 -13.8599 11.1085 -6.85401 
390 25 2 12.01 0.11 22.5315 4.55923 4.71284 22.5315 53.7416 53.8952 0 1 1 0.000313311 0.00151042 0.00193455 9.86275 64.0352 31.1521 
398 25 3 1.008 0.03 21.6483 4.2505 5.2729 21.6483 53.4328 54.4552 0 1 1 0.00688836 -0.0101618 -0.0401705 -0.795269 -9.18341 -4.71911 
2541 159 3 1.008 0.03 19.5819 4.4649 1.91396 19.5819 53.6473 51.0963 0 1 1 -0.0102729 -0.0110943 0.00214867 -1.47991 4.10431 0.365736 
386 25 1 16 -0.4 23.7034 3.77121 4.94452 23.7034 52.9536 54.1269 0 1 1 0.000335571 0.00684925 -0.00625599 5.20972 3.38327 7.97067 
9669 606 6 16 -0.53 22.1141 4.67454 0.78597 22.1141 53.8569 49.9683 0 1 1 -0.00507241 0.00178911 0.00262778 3.18124 -9.67222 18.9874 
9668 606 5 32.06 1.02 23.5435 4.80526 0.940417 23.5435 53.9876 50.1228 0 1 1 -0.000572492 -0.000976203 -0.000690893 -14.3295 12.4717 -28.1013 
9647 604 6 16 -0.53 19.6051 6.35473 4.16466 19.6051 55.5371 4.16466 0 1 0 0.00318492 0.00513014 0.000285374 -5.96692 -22.8753 10.797 
9645 604 5 32.06 1.02 19.8837 6.92984 5.46181 19.8837 56.1122 5.46181 0 1 0 0.000543464 -0.000339158 0.00356897 -1.65692 31.9987 -14.7087 
9670 606 6 16 -0.53 24.156 4.16165 2.10771 24.156 53.344 51.2901 0 1 1 -0.00086682 -0.000330305 -0.00144891 -0.806643 3.14606 -22.9382 
1529 96 3 1.008 0.03 19.2047 7.21288 0.572232 19.2047 56.3952 49.7546 0 1 1 -0.0196476 0.00361628 0.0186213 -3.11408 -11.1972 3.23311 
9673 606 8 19 -0.16 23.0404 6.84643 2.54001 23.0404 56.0288 51.7224 0 1 1 0.000331848 0.00129912 -0.00157063 5.44705 1.04536 -13.3743 
9637 604 4 14.01 -0.66 21.1961 7.73883 5.36812 21.1961 56.9212 5.36812 0 1 0 -0.00346689 0.00775173 -0.00696522 30.9323 4.78491 -15.516 
9646 604 6 16 -0.53 19.6862 6.19764 6.68716 19.6862 55.38 6.68716 0 1 0 -0.000444569 0.00100624 -0.00292755 -7.16524 -10.0321 -2.99299 
9640 604 6 16 -0.53 23.4951 8.25684 6.34566 23.4951 57.4392 6.34566 0 1 0 -0.00180953 0.00137568 0.0004792 9.11507 -18.7536 13.39 
9638 604 5 32.06 1.02 22.0816 8.50907 6.41053 22.0816 57.6914 6.41053 0 1 0 -0.00247283 0.00584481 -0.00457051 -47.4688 4.56567 14.714 
399 25 3 1.008 0.03 22.6979 5.65803 5.06544 22.6979 54.8404 54.2478 0 1 1 -0.00552605 0.00226302 0.0184424 -1.7395 -51.119 -13.6452 
10254 645 6 16 -0.53 19.7015 1.67399 4.08525 19.7015 50.8563 4.08525 0 1 0 -0.00169609 -0.0013537 0.00494782 10.2582 13.0405 7.50755 
10252 645 4 14.01 -0.66 22.134 0.945173 4.44582 22.134 50.1275 4.44582 0 1 0 0.00262571 0.0008459 0.00782654 10.1801 18.2986 16.228 
5950 372 3 1.008 0.03 17.6216 4.37012 5.51228 17.6216 102.735 54.6946 0 2 1 0.0383078 0.0284319 0.00706183 4.69637 1.75335 -9.56229 
5942 372 2 12.01 0.11 16.9132 4.02635 6.24448 16.9132 102.391 55.4268 0 2 1 0.00019434 -0.0102574 -0.000644817 -1.0281 7.43605 7.66296 
9246 578 3 1.008 0.03 20.7325 8.52416 2.61252 20.7325 156.071 2.61252 0 3 0 -0.0188515 0.00500169 -0.00985341 6.17752 -16.4356 -4.04519 
5952 372 3 1.008 0.03 17.2983 3.0798 6.63348 17.2983 101.444 55.8158 0 2 1 0.0237332 -0.0271364 -0.0125568 -1.36478 2.15743 0.281426 
391 25 3 1.008 0.03 24.9727 1.72255 6.59242 24.9727 50.9049 55.7748 0 1 1 -0.0257595 0.00177478 0.0145046 8.49505 -4.32815 4.53955 
10257 645 8 19 -0.16 20.2015 1.51879 6.93657 20.2015 50.7011 6.93657 0 1 0 -0.00220083 -0.00486411 0.000506994 10.4332 24.4541 9.78036 
5295 331 3 1.008 0.03 20.0108 0.483074 0.747382 20.0108 49.6654 49.9297 0 1 1 5.92607e-05 -0.0169709 -0.0195474 -23.0298 29.4695 33.4629 
388 25 2 12.01 0.14 23.9185 3.51421 6.34939 23.9185 52.6966 55.5317 0 1 1 -0.000371213 -0.00248219 0.00475138 11.3996 -14.8998 -10.3062 
393 25 3 1.008 0.03 23.1238 2.91435 6.81933 23.1238 52.0967 56.0017 0 1 1 0.0207765 -0.000887988 0.0119151 0.687981 5.30673 -6.16675 
5951 372 3 1.008 0.03 16.9496 4.80182 7.04297 16.9496 103.167 56.2253 0 2 1 0.00643905 0.00364179 0.00126322 -2.85829 -15.3841 -6.25043 
394 25 3 1.008 0.03 23.9524 4.43792 6.87215 23.9524 53.6203 56.0545 0 1 1 -0.0110149 -0.0258444 -0.0282973 1.9695 18.0398 9.72375 
6550 410 2 12.01 0.11 7.16122 15.1294 0.46912 56.3436 64.3118 0.46912 1 1 0 -0.00393718 0.00305682 0.00156909 43.5581 26.9942 -36.6317 
8674 543 1 16 -0.4 3.56864 9.14804 1.90102 -45.6137 58.3304 100.266 -1 1 2 -0.00153278 -0.00715445 -0.00569705 -46.0448 12.4576 -38.1416 
1188 75 2 12.01 0.14 7.91196 9.18224 4.9119 -41.2704 9.18224 4.9119 -1 0 0 0.0124246 0.00221787 0.00583467 35.6617 -15.4423 -14.2507 
1194 75 3 1.008 0.03 7.14141 9.6269 4.29637 -42.0409 9.6269 4.29637 -1 0 0 0.000365139 -0.0103256 -0.00997912 -1.60124 17.9216 2.98381 
6559 410 3 1.008 0.03 8.283 15.3283 0.421406 57.4653 64.5106 0.421406 1 1 0 0.00617793 0.00415155 -0.0160174 -33.1311 -4.34038 17.9374 
8676 543 2 12.01 0.14 2.25237 9.37019 1.19637 -46.93 58.5525 99.5611 -1 1 2 -0.000879179 0.00452406 0.00540135 28.2297 -17.0151 40.5833 
5314 333 1 16 -0.4 4.43254 8.89066 6.23996 53.6149 107.255 55.4223 1 2 1 -0.00336785 0.00157805 -0.00595827 -1.62746 1.25211 17.8192 
5327 333 3 1.008 0.03 3.4847 9.17575 4.4874 52.667 107.54 53.6697 1 2 1 0.00312158 0.00169405 -0.0199513 -5.98349 12.5059 -6.16965 
1185 75 1 16 -0.4 8.24893 11.1004 6.42679 -40.9334 11.1004 6.42679 -1 0 0 0.00515798 0.000529353 -0.00573603 -2.62959 -36.6942 -28.5479 
956 60 3 1.008 0.03 1.86245 16.4257 1.737 1.86245 -81.939 50.9194 0 -2 1 0.0140477 0.0276441 -0.00438279 7.37258 -13.9718 -23.1363 
6556 410 3 1.008 0.03 4.35835 12.613 4.05645 53.5407 61.7954 4.05645 1 1 0 -0.0185485 -0.001001 -0.015666 -12.0365 0.827188 -1.10439 
6557 410 3 1.008 0.03 4.31809 13.3503 2.38575 53.5004 62.5326 2.38575 1 1 0 -0.0184011 0.0173579 0.00169258 15.1686 -10.6691 17.8689 
6554 410 3 1.008 0.03 7.90376 12.9457 1.62297 57.0861 62.1281 1.62297 1 1 0 0.0160256 0.0158182 0.0132762 -1.02847 -3.87882 0.835706 
6547 410 2 12.01 0.14 6.7246 13.1734 3.45455 55.907 62.3558 3.45455 1 1 0 0.00627069 -0.00292771 -0.00124141 4.21204 -24.9798 -16.4034 
6545 410 1 16 -0.4 5.95608 12.0758 2.97245 55.1384 61.2582 2.97245 1 1 0 -0.000400848 0.00199193 0.00565355 -13.2341 14.2715 -4.2716 
6551 410 3 1.008 0.03 6.18692 14.0454 3.77578 55.3693 63.2277 3.77578 1 1 0 -0.00117979 0.017896 0.0193643 -10.3159 2.08362 21.0384 
6555 410 3 1.008 0.03 3.89562 11.748 2.55922 53.078 60.9303 2.55922 1 1 0 -0.000563745 -0.00514891 0.00266246 2.92579 -14.9548 6.63519 
6549 410 2 12.01 0.11 4.58579 12.4517 3.00411 53.7681 61.6341 3.00411 1 1 0 0.00282289 0.00161856 -0.000651614 -9.50945 17.1543 -16.3667 
6552 410 3 1.008 0.03 7.31801 12.7282 4.23365 56.5004 61.9106 4.23365 1 1 0 0.0235519 0.00476772 0.0298254 11.2919 6.62927 9.06923 
945 60 1 16 -0.4 1.2581 16.116 3.69027 1.2581 -82.2487 52.8726 0 -2 1 -0.00148593 -0.000910396 0.00361838 15.4154 7.89495 -7.05676 
6548 410 2 12.01 0.14 7.50888 13.7023 2.28826 56.6912 62.8846 2.28826 1 1 0 0.006585 0.0044104 0.00620794 -19.6945 30.0119 -18.8413 
2207 138 3 1.008 0.03 4.17056 16.3112 4.90509 53.3529 65.4936 -93.4596 1 1 -2 -0.00798524 -0.00279315 -0.00739732 -3.19921 -30.7197 41.1079 
6546 410 1 16 -0.4 6.587 14.6061 1.62042 55.7694 63.7885 1.62042 1 1 0 0.00217331 -0.00195837 0.00726148 17.3734 -17.1602 17.48 
2208 138 3 1.008 0.03 4.50308 14.6006 5.37046 53.6854 63.7829 -92.9942 1 1 -2 0.019838 -0.014057 0.00093086 -10.6995 2.00329 -4.0359 
2198 138 2 12.01 0.11 4.00106 15.5073 5.7306 53.1834 64.6896 -92.6341 1 1 -2 0.00902172 -0.00337275 0.00297141 29.2739 42.0097 -29.1282 
2206 138 3 1.008 0.03 2.93489 15.4114 5.81125 52.1172 64.5937 -92.5534 1 1 -2 -0.0169368 -0.0165435 0.0239051 -11.0622 -9.05938 0.548963 
6553 410 3 1.008 0.03 8.30475 14.3505 2.61409 57.4871 63.5329 2.61409 1 1 0 -0.0145941 -0.0207397 0.00691805 11.2063 -1.36736 6.71881 
8673 543 1 16 -0.4 1.32768 10.4974 3.22773 -47.8547 59.6798 101.592 -1 1 2 -0.00292788 0.000397225 -0.00109675 27.1259 -8.70513 -23.5899 
8675 543 2 12.01 0.14 1.20139 9.36401 2.35792 -47.981 58.5464 100.723 -1 1 2 -0.00913783 0.00176717 0.0142114 -0.315457 -20.4339 10.1741 
2194 138 1 16 -0.4 4.57697 15.8206 7.01181 53.7593 65.003 -91.3529 1 1 -2 0.00409096 -0.00185596 0.00209307 -9.79541 -18.2511 -1.11762 
2201 138 3 1.008 0.03 4.62161 13.7564 7.3465 53.804 62.9387 -91.0182 1 1 -2 0.0146509 -0.00910479 -0.0204191 -7.84153 12.0422 10.0949 
5322 333 3 1.008 0.03 4.69158 10.9227 6.04366 53.8739 109.287 55.226 1 2 1 0.0224902 -0.00128682 -0.0123493 11.3239 16.4885 -27.5936 
5321 333 3 1.008 0.03 3.24787 10.5461 6.85123 52.4302 108.911 56.0336 1 2 1 -0.0130219 -0.0148364 -0.0252809 53.3344 -15.3096 9.42851 
8678 543 2 12.01 0.11 4.69424 9.39389 1.06604 -44.4881 58.5762 99.4307 -1 1 2 0.00183366 -0.00398385 0.00957721 -16.5623 -16.7238 -37.7043 
8686 543 3 1.008 0.03 5.55482 9.20712 1.69515 -43.6275 58.3895 100.06 -1 1 2 0.00551848 -0.00486548 -0.0225385 8.69836 -0.349558 -5.03697 
5316 333 2 12.01 0.14 4.37533 10.2421 6.76627 53.5577 108.607 55.9486 1 2 1 -0.00111965 0.000686054 -0.00125753 -76.32 -2.6609 -17.9658 
8685 543 3 1.008 0.03 0.51986 11.6689 4.64016 -48.6625 60.8513 103.005 -1 1 2 -0.0161375 -0.00195126 0.0135062 -1.70152 -31.7559 -3.81989 
8688 543 3 1.008 0.03 4.74023 10.4305 0.670282 -44.4421 59.6128 99.035 -1 1 2 -0.0121746 -0.00612387 0.00860666 -1.67784 -11.0792 8.89905 
8682 543 3 1.008 0.03 2.2044 10.3044 0.60718 -46.978 59.4867 98.9719 -1 1 2 -0.0100728 -0.00187572 0.0383845 2.52193 -7.73423 6.55365 
8540 534 3 1.008 0.03 15.5048 10.5249 0.912601 64.6872 10.5249 -48.2697 1 0 -1 -0.00507483 -0.0206692 -0.00673201 -1.28722 13.6222 4.14071 
1187 75 2 12.01 0.14 8.9398 10.1152 5.6092 -40.2426 10.1152 5.6092 -1 0 0 0.00129547 0.00472182 0.00364569 4.18737 34.4461 4.9764 
1570 99 1 16 -0.4 13.8139 9.47317 3.73656 62.9962 -39.7092 52.9189 1 -1 1 -0.00063684 -0.00566289 0.00194238 52.3464 -13.1717 25.2269 
1574 99 2 12.01 0.11 14.5328 10.4122 4.58988 63.7151 -38.7702 53.7722 1 -1 1 0.00147093 -0.00157111 0.00635273 -46.9676 23.2568 -5.436 
1582 99 3 1.008 0.03 14.0084 10.5184 5.61221 63.1908 -38.664 54.7946 1 -1 1 -0.027046 0.00816634 0.00215921 19.336 0.48459 -40.2449 
1192 75 3 1.008 0.03 9.75416 9.57426 6.11526 -39.4282 9.57426 6.11526 -1 0 0 -0.00356917 -0.00106131 0.0339398 -14.0942 -1.8448 6.2183 
1583 99 3 1.008 0.03 15.5844 10.1922 4.74545 64.7667 -38.9901 53.9278 1 -1 1 -0.0203862 -0.00226958 0.00226647 0.714952 -10.4554 1.49889 
1572 99 2 12.01 0.14 12.7821 9.85912 2.89876 61.9645 -39.3232 52.0811 1 -1 1 -0.00325467 -0.00480464 0.00161795 -37.4115 -0.461064 3.27608 
1578 99 3 1.008 0.03 11.9788 10.2282 3.54327 61.1612 -38.9542 52.7256 1 -1 1 0.0044384 0.00880727 0.00711695 -0.61983 -5.82473 -2.06989 
8535 534 3 1.008 0.03 14.1682 12.4923 0.444986 63.3505 12.4923 -48.7374 1 0 -1 0.0170662 -0.0120498 -0.0110938 9.54916 -13.3452 -13.2031 
1575 99 3 1.008 0.03 11.3902 8.76857 1.61243 60.5725 -40.4138 50.7948 1 -1 1 0.0108311 -0.0127044 -0.00874294 12.2464 -13.3008 18.0456 
3498 219 3 1.008 0.03 12.3592 9.17715 7.04265 12.3592 58.3595 7.04265 0 1 0 0.0107227 0.0258965 0.0318951 -1.74269 -1.78843 21.9826 
8539 534 3 1.008 0.03 16.4905 10.6572 2.41627 65.6728 10.6572 -46.7661 1 0 -1 -0.0122433 0.00985793 0.00697057 -7.34871 15.046 -28.0327 
8536 534 3 1.008 0.03 14.4772 13.8732 1.21096 63.6595 13.8732 -47.9714 1 0 -1 0.0131086 0.0181127 -0.0188164 17.4516 -10.6926 -5.54081 
8533 534 2 12.01 0.11 16.2257 11.1749 1.43859 65.4081 11.1749 -47.7438 1 0 -1 -0.0119029 0.00637477 0.00241436 -5.71225 -20.5845 43.7506 
1189 75 2 12.01 0.11 9.0375 11.8415 7.28238 -40.1449 11.8415 7.28238 -1 0 0 0.00403169 -0.00375947 -0.00299439 -3.54763 54.6992 45.0962 
1584 99 3 1.008 0.03 14.5481 11.3697 4.00772 63.7304 -37.8126 53.1901 1 -1 1 -0.0191486 -0.0146209 0.00327833 -1.19077 -14.6693 19.3069 
1197 75 3 1.008 0.03 9.86096 12.4566 6.92563 -39.3214 12.4566 6.92563 -1 0 0 0.00884999 0.00628784 0.0294536 -2.59513 -3.71856 -18.292 
1191 75 3 1.008 0.03 9.53489 10.7167 4.90117 -39.6475 10.7167 4.90117 -1 0 0 0.0137211 0.0146274 0.0171349 -11.1941 -7.57192 -2.7965 
9876 619 8 19 -0.16 13.663 13.3561 3.86198 13.663 62.5385 3.86198 0 1 0 3.10505e-06 0.00323578 -0.00163189 -4.73451 -3.65631 6.77103 
9875 619 8 19 -0.16 11.9618 12.3134 4.65142 11.9618 61.4957 4.65142 0 1 0 -0.00827498 -0.00194356 0.00230017 0.729976 30.7261 6.60484 
9873 619 7 12.01 0.35 12.6139 13.5014 4.67003 12.6139 62.6838 4.67003 0 1 0 0.00419959 -0.00561871 7.41029e-05 27.627 -0.51355 -19.9693 
9871 619 6 16 -0.53 11.0586 14.7392 2.89892 11.0586 63.9215 2.89892 0 1 0 -0.00400406 0.00266184 -0.00628971 19.0425 -7.38489 21.5032 
9870 619 5 32.06 1.02 11.7332 15.0161 4.1689 11.7332 64.1984 4.1689 0 1 0 -0.000940282 -0.0022888 0.00144849 -27.4897 6.07028 -15.7436 
9872 619 6 16 -0.53 10.8985 15.1989 5.32354 10.8985 64.3813 5.32354 0 1 0 0.0115657 -0.0093157 -0.00323992 -5.24545 12.6298 3.30743 
9862 619 4 14.01 -0.66 12.941 16.035 3.98478 12.941 65.2173 3.98478 0 1 0 -0.010279 -0.000977171 0.000525097 21.0309 -2.04907 12.97 
1577 99 3 1.008 0.03 12.918 10.6567 2.1952 62.1004 -38.5256 51.3775 1 -1 1 0.0120112 -0.0122481 0.013728 17.4343 9.95469 -4.36031 
9874 619 8 19 -0.16 13.1173 13.7403 5.87977 13.1173 62.9226 5.87977 0 1 0 -0.000217733 0.0101038 -0.00247828 -2.30381 -24.1426 -4.44834 
9868 619 8 19 -0.16 13.1672 15.5128 7.18778 13.1672 64.6951 7.18778 0 1 0 0.00595521 -0.00446573 0.00216194 -30.571 -8.35712 5.32972 
9867 619 8 19 -0.16 15.0051 15.172 6.22703 15.0051 64.3543 6.22703 0 1 0 -0.00273299 0.000404193 -0.00396118 -11.0577 19.8756 4.2083 
3006 188 3 1.008 0.03 16.266 13.8103 4.53707 65.4484 13.8103 53.7194 1 0 1 -0.00144102 0.0118627 0.00634661 -13.4908 9.73605 -10.2431 
9866 619 7 12.01 0.35 14.0954 16.1218 6.53008 14.0954 65.3041 6.53008 0 1 0 0.00121167 0.00492489 0.000636986 44.3118 26.7641 0.410054 
3790 237 3 1.008 0.03 15.4808 16.048 1.45443 15.4808 65.2303 1.45443 0 1 0 0.00934199 0.0238233 0.000980175 -2.20234 22.1974 2.84284 
4232 265 3 1.008 0.03 9.1628 11.5599 0.689818 9.1628 11.5599 -48.4925 0 0 -1 0.0129058 0.0223435 0.00143575 26.6146 -33.8228 -25.4795 
4231 265 3 1.008 0.03 10.3874 10.3939 1.05846 10.3874 10.3939 -48.1239 0 0 -1 -0.00275328 0.0215894 -0.00295167 4.11108 10.5863 -8.56922 
8621 539 3 1.008 0.03 10.0734 16.6292 1.12617 108.438 16.6292 1.12617 2 0 0 0.00339749 0.00262892 0.017179 -2.35918 6.57024 -15.1542 
8529 534 1 16 -0.4 15.8925 12.526 1.70636 65.0748 12.526 -47.476 1 0 -1 -0.00239166 0.000106504 0.000107511 -18.2657 -11.5413 -0.8843 
8531 534 2 12.01 0.14 15.0568 13.0645 0.700312 64.2391 13.0645 -48.482 1 0 -1 -0.00117951 -0.00614611 0.000313574 -9.8129 50.651 18.5376 
8961 561 1 16 -0.4 24.5317 12.5905 1.71657 24.5317 -36.5918 50.8989 0 -1 1 -0.00526506 0.00451342 0.00104369 17.8202 -9.78721 -41.5814 
9649 604 8 19 -0.16 18.6466 9.01201 4.30737 18.6466 58.1944 4.30737 0 1 0 0.00104281 0.000505707 -0.00298352 1.2061 -14.1693 22.4897 
8969 561 3 1.008 0.03 24.8688 10.6027 3.77397 24.8688 -38.5797 52.9563 0 -1 1 0.00578338 -0.0111642 -0.000477188 17.1506 5.19012 -20.6821 
3008 188 3 1.008 0.03 17.3011 13.3728 5.79296 66.4835 13.3728 54.9753 1 0 1 -0.0113765 0.00162491 -0.0150191 -0.248598 -0.00402682 38.1251 
3792 237 3 1.008 0.03 16.9385 16.5697 2.24322 16.9385 65.7521 2.24322 0 1 0 0.0253645 0.00922324 0.00206626 -13.153 9.59143 0.390006 
9651 604 8 19 -0.16 18.846 9.14946 6.41931 18.846 58.3318 6.41931 0 1 0 -0.00102845 0.000468481 0.000470098 4.82505 18.3866 20.3357 
2997 188 2 12.01 0.11 21.0363 16.1119 1.62714 70.2187 16.1119 50.8095 1 0 1 -0.0077964 0.00179777 -0.002065 -23.7685 -13.1061 47.7062 
3001 188 3 1.008 0.03 17.7554 13.8681 2.23049 66.9377 13.8681 51.4128 1 0 1 -0.0226713 -0.000198462 -0.0113499 9.55746 12.9543 14.9297 
9642 604 8 19 -0.16 22.3944 11.0608 6.41316 22.3944 60.2431 6.41316 0 1 0 -0.00238251 -0.000680635 -0.00132661 9.22856 24.4516 33.9326 
9247 578 3 1.008 0.03 21.4135 10.0864 2.29555 21.4135 157.633 2.29555 0 3 0 -0.00134112 0.000828668 -0.0151253 -0.0436503 0.406703 9.99913 
9238 578 2 12.01 0.11 20.5757 9.43424 2.07073 20.5757 156.981 2.07073 0 3 0 -0.0017764 0.000796965 0.0131962 23.4107 9.86117 4.83867 
8965 561 2 12.01 0.11 23.1871 12.7835 1.87908 23.1871 -36.3988 51.0614 0 -1 1 0.000559424 -0.00266409 0.00163609 -54.5071 -88.6975 10.4561 
8971 561 3 1.008 0.03 22.9805 13.5184 2.5444 22.9805 -35.6639 51.7267 0 -1 1 0.000956767 0.00412848 0.0485408 -9.72942 46.0937 26.9587 
9644 604 8 19 -0.16 22.9908 10.2387 4.62524 22.9908 59.4211 4.62524 0 1 0 -0.00402981 -0.00561454 0.00107586 -35.7092 -11.5978 15.4052 