ITEM: TIMESTEP
1150000
ITEM: NUMBER OF ATOMS
10479
ITEM: BOX BOUNDS pp pp pp
4.0882558190751794e-01 4.9591174418091420e+01
4.0882558190751794e-01 4.9591174418091420e+01
4.0882558190751794e-01 4.9591174418091420e+01
ITEM: ATOMS id mol type mass q x y z xu yu zu ix iy iz vx vy vz fx fy fz 
5401 338 3 1.008 0.03 6.14678 4.80775 6.31497 55.3291 103.172 6.31497 1 2 0 -0.00337904 0.00828249 -0.0151288 -3.05982 0.0115423 -10.4307 
5396 338 2 12.01 0.14 7.20714 4.61222 6.15679 56.3895 102.977 6.15679 1 2 0 0.00178004 -0.00444219 -0.00880323 11.3755 42.1274 -2.97885 
3089 194 1 16 -0.4 5.50221 5.08062 2.35272 103.867 54.263 -145.194 2 1 -3 -0.00168525 -0.00280851 0.00145988 -27.1709 26.8277 -51.1434 
3100 194 3 1.008 0.03 5.62881 7.15736 2.56061 103.994 56.3397 -144.986 2 1 -3 -0.0485689 0.0156078 0.0219166 7.49574 -1.22043 -4.90497 
3093 194 2 12.01 0.11 6.13413 6.37254 1.97799 104.499 55.5549 -145.569 2 1 -3 -0.00217533 -0.00106648 0.00424799 7.22987 -43.8692 25.4381 
3101 194 3 1.008 0.03 7.19895 6.20455 2.33155 105.564 55.3869 -145.215 2 1 -3 -0.00492574 0.0201694 0.0120863 -25.9304 16.7248 -11.0376 
3091 194 2 12.01 0.14 4.37713 4.80633 1.40865 102.742 53.9887 -146.138 2 1 -3 0.00688484 -0.00196385 -0.00105546 -17.8292 38.3031 56.3955 
5402 338 3 1.008 0.03 7.60518 5.25381 5.30929 56.7875 103.619 5.30929 1 2 0 0.0206397 0.005428 0.0102472 -12.3985 -26.5907 13.4791 
3090 194 1 16 -0.4 4.3269 2.36357 1.65694 102.692 51.5459 -145.89 2 1 -3 -0.00700643 -0.00485888 -0.00594047 1.14716 -9.05528 -25.2984 
3097 194 3 1.008 0.03 3.07938 3.54983 2.7243 101.444 52.7322 -144.823 2 1 -3 0.00160363 -0.0126238 -0.0193444 10.4795 6.95345 5.32233 
5328 333 3 1.008 0.03 2.22987 5.71317 4.04111 51.4122 104.078 53.2235 1 2 1 0.0124016 -0.00742808 -0.014769 5.47668 -2.0281 -3.10324 
5398 338 2 12.01 0.11 7.01347 2.72272 4.86847 56.1958 101.087 4.86847 1 2 0 0.0045337 0.00532536 -0.00123308 -7.64714 1.74814 13.9936 
3092 194 2 12.01 0.14 3.51663 3.52264 1.72777 101.881 52.705 -145.819 2 1 -3 0.00734942 0.00427316 0.00297292 5.84397 -8.05179 3.24775 
5407 338 3 1.008 0.03 7.76259 2.75532 4.08022 56.9449 101.12 4.08022 1 2 0 -0.00749276 -0.00418187 -0.0104884 1.83835 -3.3253 -0.715509 
5318 333 2 12.01 0.11 2.16334 6.72086 4.43892 51.3457 105.086 53.6213 1 2 1 0.00408656 0.000983821 -0.00399794 -1.19331 6.8291 47.7619 
5394 338 1 16 -0.4 7.43801 3.24017 6.09381 56.6204 101.605 6.09381 1 2 0 0.00392844 -0.0062394 -0.00171096 15.1219 -4.44434 -4.34927 
5314 333 1 16 -0.4 2.3691 6.76971 5.90171 51.5514 105.134 55.0841 1 2 1 0.00411291 0.00277781 0.00212251 -20.5311 -8.35464 -18.3169 
5326 333 3 1.008 0.03 1.28167 7.20836 4.02953 50.464 105.573 53.2119 1 2 1 -0.00385488 -0.0179651 0.00823141 -7.96338 -1.84089 8.43814 
3095 194 3 1.008 0.03 3.64695 5.66705 1.41843 102.012 54.8494 -146.129 2 1 -3 0.0258408 0.00418458 0.0135689 18.2009 -19.192 8.28605 
5406 338 3 1.008 0.03 6.11218 3.21451 4.56541 55.2945 101.579 4.56541 1 2 0 0.0197962 0.00278047 0.0223592 -10.8365 5.99354 -11.7574 
5327 333 3 1.008 0.03 2.92764 7.38502 4.11739 52.11 105.75 53.2997 1 2 1 0.000636361 -0.0218538 -0.0141501 19.4576 -0.652267 -17.2461 
5395 338 2 12.01 0.14 7.874 5.15663 7.40424 57.0563 103.521 7.40424 1 2 0 0.00350571 -0.0002097 0.007052 -7.04066 -55.5621 7.28559 
5408 338 3 1.008 0.03 6.68878 1.74496 5.16154 55.8711 100.11 5.16154 1 2 0 -0.00316454 -0.0283372 -0.00702469 3.55749 -18.5238 -10.8104 
8959 560 3 1.008 0.03 3.42536 1.46986 3.96466 150.972 1.46986 102.329 3 0 2 0.0122554 -0.0249942 0.0335246 -3.15767 -9.44008 14.4684 
5315 333 2 12.01 0.14 0.920306 4.8904 6.75834 50.1027 103.255 55.9407 1 2 1 -0.00102506 0.00361775 0.00552708 22.7512 -40.9442 25.6437 
3098 194 3 1.008 0.03 2.57693 3.31386 1.19391 100.942 52.4962 -146.353 2 1 -3 -0.0161678 0.00828664 0.0130396 14.2437 13.1263 -13.0131 
8023 502 3 1.008 0.03 8.12616 8.20883 5.72671 106.491 106.574 104.091 2 2 2 0.0314183 0.0109204 0.00591012 -2.8414 -6.25097 1.82513 
5316 333 2 12.01 0.14 1.20623 6.3879 6.66576 50.3886 104.753 55.8481 1 2 1 0.00131646 0.00140707 -0.000727676 8.90663 -11.2519 -26.1965 
8946 560 1 16 -0.4 1.64197 0.664677 4.73424 149.189 0.664677 103.099 3 0 2 -0.00281538 0.00201045 -0.00092572 25.5189 14.4509 -13.3986 
8950 560 2 12.01 0.11 2.96463 0.483411 4.16504 150.512 0.483411 102.53 3 0 2 0.00284339 0.00394465 -0.00381483 -6.33375 7.9019 -24.9176 
8021 502 2 12.01 0.11 5.42857 8.53515 5.62373 103.793 106.9 103.988 2 2 2 0.00226431 -0.00563299 0.00384267 -28.9701 -59.4038 57.6609 
8027 502 3 1.008 0.03 5.82125 7.4549 5.80487 104.186 105.82 104.17 2 2 2 0.00595793 0.0345109 0.0168809 -21.6684 43.8312 -7.92042 
5324 333 3 1.008 0.03 2.88787 2.90508 6.65339 52.0702 101.27 55.8357 1 2 1 0.00104378 0.00252766 0.00062903 -5.85089 -16.0877 -7.07269 
5317 333 2 12.01 0.11 2.96122 3.7128 7.34392 52.1436 102.077 56.5263 1 2 1 -0.00182179 -0.00034432 -0.00100299 -18.7163 41.1715 0.549876 
5319 333 3 1.008 0.03 0.978052 4.26923 5.85355 50.1604 102.634 55.0359 1 2 1 0.0108665 -0.0114736 0.00802916 4.11277 16.9891 -4.19284 
3099 194 3 1.008 0.03 6.12322 6.65137 0.897528 104.488 55.8337 -146.65 2 1 -3 -0.00041931 -0.00279524 0.0191423 1.40023 -8.03821 15.4709 
3096 194 3 1.008 0.03 4.7592 4.94579 0.45013 103.124 54.1281 -147.097 2 1 -3 -0.0448292 -0.0239801 0.00906971 8.02807 -17.4763 -35.8592 
5325 333 3 1.008 0.03 3.51824 4.50107 6.82578 52.7006 102.866 56.0081 1 2 1 -0.0270632 0.0131751 0.01239 0.224244 -1.8843 4.28563 
8956 560 3 1.008 0.03 0.574169 2.27031 6.58917 148.121 2.27031 104.954 3 0 2 0.0177077 0.0156801 -0.00908525 23.5581 5.78197 -24.8998 
6848 428 3 1.008 0.03 0.595849 5.87676 1.33154 49.7782 5.87676 1.33154 1 0 0 -0.0217119 0.0113463 0.0138642 -2.89271 3.37253 -8.9809 
5399 338 3 1.008 0.03 7.89557 6.16322 7.29297 57.0779 104.528 7.29297 1 2 0 -0.0249029 -0.0234336 -0.00972011 -8.18744 55.0003 10.9946 
4336 271 3 1.008 0.03 2.1381 1.01131 0.425753 100.503 -48.171 0.425753 2 -1 0 0.0175137 -0.00032841 0.0241538 10.3791 9.22104 -1.34263 
4275 268 2 12.01 0.14 11.7147 0.867517 1.10821 159.262 -48.3148 -97.2565 3 -1 -2 -0.00834117 -0.00313009 -0.00291147 -36.1239 0.896568 -8.28529 
8687 543 3 1.008 0.03 10.5716 2.95288 6.57399 -38.6107 52.1352 104.939 -1 1 2 0.0170036 0.0231393 -0.010825 -30.1 -9.74137 -17.1733 
2439 153 3 1.008 0.03 9.87997 4.29479 1.10818 108.245 53.4771 50.2905 2 1 1 -0.00315797 0.00991783 0.00165128 10.9662 -6.59063 16.474 
2444 153 3 1.008 0.03 11.9143 6.86116 0.927034 110.279 56.0435 50.1094 2 1 1 -0.0307329 0.0283627 -0.0257634 1.91725 -3.51408 -4.16611 
2437 153 2 12.01 0.11 12.2535 5.90007 0.518104 110.618 55.0824 49.7005 2 1 1 -0.00445455 0.00248806 -0.00323602 -37.0307 5.36483 -11.8429 
5596 350 3 1.008 0.03 9.83091 6.65117 5.13815 9.83091 6.65117 54.3205 0 0 1 -0.00699933 -0.000759682 0.00065072 9.14776 6.3636 11.1917 
2440 153 3 1.008 0.03 9.84633 6.12261 0.909249 108.211 55.305 50.0916 2 1 1 -0.000694998 -0.0157069 -0.0150534 -7.73629 -31.8499 -3.4597 
4277 268 2 12.01 0.11 12.7998 1.60585 3.1206 160.347 -47.5765 -95.2441 3 -1 -2 0.00207502 0.000908123 -0.00157774 -9.75527 16.9968 -23.0829 
4283 268 3 1.008 0.03 13.7655 1.80742 3.58821 161.313 -47.3749 -94.7765 3 -1 -2 0.0122542 0.00948592 -0.0146413 1.6146 -1.73966 -5.15573 
10112 635 6 16 -0.53 15.0827 4.99657 2.6218 113.447 54.1789 2.6218 2 1 0 -0.00645865 0.00607026 0.00148957 -13.4534 -1.55286 1.26898 
10110 635 5 32.06 1.02 16.3273 5.70358 2.7001 114.692 54.8859 2.7001 2 1 0 0.00108625 0.00482967 1.61372e-05 0.53785 39.7458 13.8965 
10116 635 8 19 -0.16 16.3123 5.46343 5.26877 114.677 54.6458 5.26877 2 1 0 1.07453e-05 0.00681208 0.000137862 6.6285 4.48627 4.26475 
4284 268 3 1.008 0.03 12.1824 2.50993 3.33214 159.729 -46.6724 -95.0326 3 -1 -2 -0.0294807 -0.016471 -0.00182208 7.23712 -14.4626 -4.17697 
2435 153 2 12.01 0.14 9.98486 5.10959 0.422713 108.35 54.2919 49.6051 2 1 1 -0.000985143 -0.000256014 -0.00365133 25.968 56.7675 2.66737 
4273 268 1 16 -0.4 12.8982 1.41391 1.66438 160.445 -47.7684 -96.7003 3 -1 -2 -0.00471372 0.00160479 0.0112167 1.88526 -0.241438 38.6908 
8674 543 1 16 -0.4 11.9233 4.19718 7.17038 -37.259 53.3795 105.535 -1 1 2 -0.000601894 -0.00432514 0.00212883 -25.6147 -8.16239 -19.0201 
5597 350 3 1.008 0.03 11.1612 7.49834 4.41339 11.1612 7.49834 53.5957 0 0 1 -0.0170522 -0.0110653 -0.00999651 -7.91597 9.75066 28.0654 
4285 268 3 1.008 0.03 12.3451 0.771278 3.65741 159.892 -48.4111 -94.7073 3 -1 -2 -0.00474017 0.00671516 -0.0103035 1.0413 -2.6269 -4.24797 
5589 350 2 12.01 0.11 10.7834 7.14842 5.41408 10.7834 7.14842 54.5964 0 0 1 -0.00348754 -0.00841099 -5.10119e-05 12.3635 -32.52 -64.4215 
5595 350 3 1.008 0.03 11.5009 6.37596 5.65285 11.5009 6.37596 54.8352 0 0 1 -0.0252453 0.0129448 -0.0081652 0.255869 -6.26559 8.36361 
2445 153 3 1.008 0.03 12.5302 5.311 1.36908 110.895 54.4934 50.5514 2 1 1 0.0152917 -0.00909736 -0.0305318 8.2166 -10.9975 6.02253 
10102 635 4 14.01 -0.66 16.2573 7.28396 2.9931 114.622 56.4663 2.9931 2 1 0 0.00091832 0.00507751 -0.0042322 -7.32141 -17.7968 -3.51572 
5587 350 2 12.01 0.14 11.787 8.56449 7.0372 11.787 8.56449 56.2196 0 0 1 -0.00165095 -0.00131561 -0.00219133 26.5981 -18.1844 80.1075 
5585 350 1 16 -0.4 10.637 8.04466 6.44191 10.637 8.04466 55.6243 0 0 1 0.00556296 0.00278374 0.00108584 -31.7701 28.1125 12.5555 
8678 543 2 12.01 0.11 11.5518 2.84332 6.91089 -37.6305 52.0257 105.276 -1 1 2 -0.00148636 -0.00673522 0.00193038 24.7902 17.597 33.5189 
8688 543 3 1.008 0.03 12.1773 2.25856 6.26885 -37.0051 51.4409 104.634 -1 1 2 0.00271918 0.00818457 0.00203974 7.55652 1.92266 -17.2174 
5591 350 3 1.008 0.03 12.4142 7.69821 7.38719 12.4142 7.69821 56.5695 0 0 1 0.0169454 -0.0119771 -0.0127641 -12.791 16.7809 -11.7292 
10103 635 5 32.06 1.02 15.3277 8.28873 2.20186 113.692 57.4711 2.20186 2 1 0 -0.00211393 0.00316996 -0.00220656 29.8152 -34.9817 38.8501 
10109 635 8 19 -0.16 13.2731 7.38365 3.5309 111.638 56.566 3.5309 2 1 0 0.00223537 -0.00110782 2.13438e-05 -1.69043 -5.36829 -1.55376 
10106 635 7 12.01 0.35 13.9846 8.48143 3.36542 112.349 57.6638 3.36542 2 1 0 -0.00109878 -0.00504242 -0.00810609 -30.9406 10.3606 6.36985 
4280 268 3 1.008 0.03 10.7949 1.39966 1.53383 158.342 -47.7827 -96.8309 3 -1 -2 -0.0104573 0.00796341 -0.0216872 29.2806 -12.2659 -19.2962 
5207 326 3 1.008 0.03 16.2705 2.59204 6.83743 16.2705 100.957 -42.3449 0 2 -1 -0.0137263 -0.0179784 0.0136102 -5.84181 12.7551 -1.75796 
10105 635 6 16 -0.53 14.7839 7.6166 1.06449 113.149 56.7989 1.06449 2 1 0 -0.00128506 -0.00154778 0.00719332 -18.9214 30.7047 -30.674 
8681 543 3 1.008 0.03 13.6394 5.16778 6.91602 -35.543 54.3501 105.281 -1 1 2 -0.00570808 0.0290113 -0.0179969 -4.50967 -8.29 15.189 
1534 96 3 1.008 0.03 14.3898 3.51572 0.665044 14.3898 52.6981 49.8474 0 1 1 0.00933264 0.00455582 -0.00353384 14.0396 3.59513 -4.21681 
8361 523 3 1.008 0.03 23.2422 6.33746 0.721523 121.607 6.33746 99.0862 2 0 2 -0.0142429 0.00813634 0.0203531 1.34071 2.01906 11.6218 
10113 635 7 12.01 0.35 17.0022 5.03656 4.22304 115.367 54.2189 4.22304 2 1 0 -0.00372637 0.0015983 0.00916117 -0.428151 -1.27532 29.392 
10114 635 8 19 -0.16 16.9241 3.74051 4.28383 115.289 52.9229 4.28383 2 1 0 -0.00255194 -0.00217082 -0.00138242 -9.80279 -22.7575 -6.83568 
10115 635 8 19 -0.16 18.2861 5.2432 4.44658 116.651 54.4256 4.44658 2 1 0 -0.00305076 -0.00073989 -0.000189682 2.42842 20.2387 -3.02732 
10111 635 6 16 -0.53 17.3421 5.35565 1.77487 115.707 54.538 1.77487 2 1 0 0.00103689 -0.00255035 0.000242614 20.1706 -9.51369 -27.1202 
2536 159 3 1.008 0.03 17.6091 2.06488 1.27301 17.6091 51.2472 50.4554 0 1 1 -0.0170333 -0.0156433 0.0292683 6.06094 -12.202 -2.78629 
5131 321 3 1.008 0.03 24.1417 7.65327 5.85977 24.1417 56.8356 5.85977 0 1 0 -0.00265562 -0.0179922 0.0108496 -9.75855 -2.24398 -5.90186 
8932 559 2 12.01 0.14 22.4535 2.6246 3.93883 -26.7289 2.6246 3.93883 -1 0 0 -0.00317743 0.00633958 -0.0012209 -33.2572 -26.7111 45.8052 
8937 559 3 1.008 0.03 22.4826 1.81527 4.7429 -26.6998 1.81527 4.7429 -1 0 0 0.00648555 0.0153267 -0.00220572 16.9981 22.1675 -26.7633 
8936 559 3 1.008 0.03 23.2681 3.42379 2.10477 -25.9143 3.42379 2.10477 -1 0 0 0.0238535 0.0054016 -0.0100778 14.2118 -5.73255 21.0405 
8358 523 2 12.01 0.11 20.6393 6.95555 1.19461 119.004 6.95555 99.5593 2 0 2 -0.003121 -0.00296564 0.00121876 42.4983 39.9472 -20.2086 
8934 559 2 12.01 0.11 20.0218 2.16636 4.075 -29.1605 2.16636 4.075 -1 0 0 0.00103868 -0.00158582 -0.00377565 42.406 -25.0741 -25.1283 
8943 559 3 1.008 0.03 19.7136 2.94391 4.6824 -29.4687 2.94391 4.6824 -1 0 0 -0.0143629 -0.00777173 0.00908299 0.820014 33.1301 23.0706 
8930 559 1 16 -0.4 21.2419 2.38193 3.2758 -27.9404 2.38193 3.2758 -1 0 0 -0.00161963 0.00175423 0.00164089 -37.9369 -1.09568 -7.89094 
8944 559 3 1.008 0.03 19.1839 2.04758 3.41763 -29.9985 2.04758 3.41763 -1 0 0 -0.0242132 -0.0215062 -0.0144009 -7.23689 -6.73047 -9.16203 
9159 573 3 1.008 0.03 18.0443 7.63874 7.07184 18.0443 7.63874 7.07184 0 0 0 0.00147403 0.0232287 0.00400717 6.68347 7.02264 -2.66441 
8367 523 3 1.008 0.03 21.0909 6.67792 2.15039 119.456 6.67792 100.515 2 0 2 -0.0218812 -0.00385479 0.00555577 4.5957 -4.45297 -5.10241 
8366 523 3 1.008 0.03 19.6432 6.62996 1.19756 118.008 6.62996 99.5623 2 0 2 -0.0041978 0.00628183 -0.0114582 -27.0515 -5.64546 -2.77726 
9162 573 3 1.008 0.03 19.3402 7.60862 4.99571 19.3402 7.60862 4.99571 0 0 0 -0.0274418 -0.00584929 0.0310924 6.53438 -4.3695 3.01319 
8942 559 3 1.008 0.03 20.1069 1.26785 4.69349 -29.0754 1.26785 4.69349 -1 0 0 -0.0155566 -0.00944074 -0.00981744 0.173942 1.55378 -2.70375 
8938 559 3 1.008 0.03 22.3301 3.57406 4.46919 -26.8523 3.57406 4.46919 -1 0 0 0.00436714 -0.000129787 0.0187718 3.39705 -1.45864 -1.4929 
8931 559 2 12.01 0.14 23.5799 2.72371 2.9281 -25.6025 2.72371 2.9281 -1 0 0 -0.00244678 -0.00512393 0.00111816 23.9455 16.0237 -6.42838 
8935 559 3 1.008 0.03 24.4491 3.07671 3.5594 -24.7332 3.07671 3.5594 -1 0 0 -0.0122526 -0.0227229 -0.00222614 -16.5967 -2.69479 -24.8908 
2535 159 3 1.008 0.03 19.2148 1.30589 1.08153 19.2148 50.4882 50.2639 0 1 1 0.0165604 -0.0172945 0.00961517 -3.0337 -0.856541 -6.77918 
8929 559 1 16 -0.4 23.9141 1.49178 2.29356 -25.2683 1.49178 2.29356 -1 0 0 -0.00265323 -0.00515557 -0.00759076 -1.11842 -21.521 2.18573 
5208 326 3 1.008 0.03 17.9396 3.07189 6.31235 17.9396 101.437 -42.87 0 2 -1 -0.00378528 -0.000229084 0.0198596 -15.3055 1.43938 13.0914 
5203 326 2 12.01 0.14 17.3125 2.64094 7.12851 17.3125 101.006 -42.0538 0 2 -1 0.00266141 -0.000274381 0.00152117 19.6349 -4.63254 -23.1387 
8368 523 3 1.008 0.03 20.7034 8.07309 1.10294 119.068 8.07309 99.4676 2 0 2 0.0210961 0.00468016 -0.0165918 -12.9066 -22.7116 12.4701 
5202 326 1 16 -0.4 19.0891 0.953831 7.10357 19.0891 99.3185 -42.0788 0 2 -1 0.00651138 0.00143049 -4.92021e-05 12.5269 6.67679 -4.46688 
5204 326 2 12.01 0.14 17.7007 1.16475 7.16989 17.7007 99.5294 -42.0125 0 2 -1 -0.00313876 -0.00636038 4.43434e-05 6.32496 -20.5628 30.2025 
5210 326 3 1.008 0.03 17.2837 0.597507 6.37588 17.2837 98.9622 -42.8065 0 2 -1 -0.00631515 0.0278731 -0.019513 -9.54637 -2.74828 -20.415 
9156 573 2 12.01 0.14 19.5469 8.43496 5.67673 19.5469 8.43496 5.67673 0 0 0 0.00326795 -0.00296578 0.00441384 15.0835 -20.8981 -7.96084 
9161 573 3 1.008 0.03 20.4488 8.21745 6.24653 20.4488 8.21745 6.24653 0 0 0 -0.019657 -0.00719808 0.0125148 -5.58285 -6.35701 6.95808 
9155 573 2 12.01 0.14 18.2932 8.57433 6.54251 18.2932 8.57433 6.54251 0 0 0 0.00643401 0.00359231 -0.000126761 -21.4303 23.5824 -1.61784 
2531 159 2 12.01 0.14 18.3022 1.6042 0.541709 18.3022 50.7865 49.7241 0 1 1 0.00242841 -0.00238301 0.0042742 -30.7296 23.5175 -10.9578 
2540 159 3 1.008 0.03 19.2502 3.89906 1.03394 19.2502 53.0814 50.2163 0 1 1 -0.0265909 -0.00542592 -0.00407491 -12.2645 1.84907 19.1502 
1045 66 2 12.01 0.11 1.99683 10.9003 4.79273 -47.1855 -87.4644 152.34 -1 -2 3 -0.00465909 0.00843207 0.0027703 -20.6535 17.8729 29.6144 
5146 322 3 1.008 0.03 3.03327 9.27875 1.75636 3.03327 9.27875 50.9387 0 0 1 0.022706 -0.0135224 0.00930715 15.9394 -6.02544 8.66426 
5145 322 3 1.008 0.03 1.43816 9.14802 1.22491 1.43816 9.14802 50.4073 0 0 1 0.00448914 0.00717451 -0.00133799 1.68291 9.89773 -1.81755 
1041 66 1 16 -0.4 0.986587 10.1317 4.21223 -48.1958 -88.233 151.759 -1 -2 3 -0.00186979 0.0073533 0.000653846 -3.1757 10.2795 -7.66094 
9357 585 3 1.008 0.03 1.83812 12.9813 6.96368 51.0205 12.9813 56.146 1 0 1 -0.0152913 -0.00689821 -0.0202464 -4.92085 33.2587 11.9001 
9349 585 2 12.01 0.11 1.47021 14.0158 7.27163 50.6526 14.0158 56.454 1 0 1 -0.00289828 -0.00182017 0.00254469 40.9498 -6.76229 18.2572 
8024 502 3 1.008 0.03 7.5941 9.04087 4.22966 105.959 107.406 102.594 2 2 2 0.0408025 0.0132648 -0.0071596 -4.03279 1.05707 28.437 
8028 502 3 1.008 0.03 4.45677 8.67882 6.24691 102.821 107.044 104.612 2 2 2 -0.0195236 -0.0186438 -0.00734989 41.4429 -5.1593 -27.106 
8017 502 1 16 -0.4 6.41762 9.41292 6.03971 104.782 107.778 104.404 2 2 2 0.000819569 0.00255357 0.00608149 28.7995 -1.22464 -15.983 
8019 502 2 12.01 0.14 7.67005 9.11756 5.35687 106.035 107.482 103.722 2 2 2 -0.00454861 0.00153807 -0.0080999 7.14055 48.4911 -15.5286 
1052 66 3 1.008 0.03 2.05996 11.9541 4.5719 -47.1224 -86.4106 152.119 -1 -2 3 0.0345564 0.0116221 -0.0059107 -4.59391 5.05428 -18.3619 
5151 322 3 1.008 0.03 2.86022 12.571 0.575728 2.86022 12.571 49.7581 0 0 1 0.00844033 0.0177576 -0.000900186 1.3009 16.7201 7.72776 
8029 502 3 1.008 0.03 5.19839 8.63147 4.59928 103.563 106.996 102.964 2 2 2 0.0239466 0.01463 0.00572773 -5.44477 4.70936 -23.78 
4712 295 3 1.008 0.03 5.60105 11.952 6.53164 103.966 11.952 6.53164 2 0 0 -0.00726532 0.0100889 -0.013406 -6.4875 2.19248 5.90102 
5142 322 2 12.01 0.11 2.66038 11.747 1.23621 2.66038 11.747 50.4186 0 0 1 0.0006776 -0.00366903 -0.00265191 5.1072 -24.6216 10.1062 
5150 322 3 1.008 0.03 3.52769 11.5269 1.91865 3.52769 11.5269 51.101 0 0 1 -0.0259213 0.00271677 0.00329339 -18.9217 11.8588 -10.8524 
8250 516 3 1.008 0.03 5.90714 15.1793 3.03454 104.272 64.3617 -46.1478 2 1 -1 -0.020524 -0.00949885 -0.0114839 15.6795 -4.44357 -0.5231 
8256 516 3 1.008 0.03 4.20614 16.1164 1.96072 102.571 65.2987 -47.2216 2 1 -1 -0.01255 0.0105039 -0.00264714 -9.00379 4.4378 6.35542 
8242 516 1 16 -0.4 4.67824 14.0842 1.81018 103.043 63.2666 -47.3722 2 1 -1 0.000857634 0.000122216 -0.00106595 -11.3276 11.2225 10.9544 
8246 516 2 12.01 0.11 4.24635 15.3261 1.22685 102.611 64.5084 -47.9555 2 1 -1 -0.000187919 -0.00693728 0.00530278 54.3872 -14.5802 29.7191 
8244 516 2 12.01 0.14 5.85397 14.1605 2.63436 104.219 63.3428 -46.548 2 1 -1 0.00506844 0.00333197 1.3357e-05 -32.768 -9.77952 -30.07 
8243 516 2 12.01 0.14 6.9739 13.6261 1.67134 105.339 62.8084 -47.511 2 1 -1 -0.00316494 0.00382809 0.00813016 12.5401 37.9617 33.9876 
8249 516 3 1.008 0.03 5.58448 13.489 3.4687 103.949 62.6714 -45.7136 2 1 -1 -0.0177057 0.0107645 -0.00758875 13.0357 2.06124 -6.53884 
8247 516 3 1.008 0.03 6.57727 13.0084 0.894542 104.942 62.1907 -48.2878 2 1 -1 -0.0252363 0.0041358 0.00171466 -3.10102 -9.034 -12.5221 
8248 516 3 1.008 0.03 7.57506 13.0219 2.33579 105.94 62.2043 -46.8466 2 1 -1 -0.000219101 -0.00708407 0.0238616 10.8479 -6.5683 -4.39015 
8018 502 1 16 -0.4 8.15642 11.5569 5.22819 106.521 109.922 103.593 2 2 2 0.00220755 0.00575314 0.00272323 -24.8393 -3.10744 13.9916 
9351 585 3 1.008 0.03 2.95385 14.2771 5.264 52.1362 14.2771 54.4463 1 0 1 0.0081328 -0.0129798 0.0123309 6.4642 -22.8856 13.2281 
9347 585 2 12.01 0.14 2.13282 14.9522 5.24647 51.3152 14.9522 54.4288 1 0 1 -0.00476234 0.00030477 0.00170903 11.3042 48.7023 -18.5073 
8241 516 1 16 -0.4 7.749 14.7555 1.18621 106.114 63.9379 -47.9961 2 1 -1 0.00382087 -0.000904116 -0.00593242 -20.1937 -3.21973 16.6829 
9352 585 3 1.008 0.03 1.90956 14.9513 4.1738 51.0919 14.9513 53.3561 1 0 1 -0.0130616 -0.0113031 0.00229966 -12.5985 -5.11936 6.69612 
9354 585 3 1.008 0.03 3.77162 16.2635 5.26002 52.954 16.2635 54.4424 1 0 1 0.00951782 -0.00670512 0.00964905 20.869 3.57756 -0.272576 
9348 585 2 12.01 0.14 2.74166 16.3683 5.49922 51.924 16.3683 54.6816 1 0 1 0.00484944 -0.00219272 -0.00189606 -19.1201 -9.42608 15.8468 
9345 585 1 16 -0.4 1.03695 14.7293 6.12059 50.2193 14.7293 55.3029 1 0 1 -0.00341866 -0.00480692 0.00447633 -4.47805 -11.6297 3.73884 
9353 585 3 1.008 0.03 2.66755 16.7365 6.56853 51.8499 16.7365 55.7509 1 0 1 0.0140946 0.0126619 0.0276402 -0.152607 -16.7543 -24.3773 
5152 322 3 1.008 0.03 1.7126 11.9224 1.76658 1.7126 11.9224 50.9489 0 0 1 0.019398 0.0129961 0.00672477 7.97898 -1.634 1.16138 
3272 205 3 1.008 0.03 8.15129 16.7724 3.11897 -41.0311 16.7724 52.3013 -1 0 1 -0.00147263 -0.0106522 0.0136959 -15.9791 9.29902 4.5271 
8255 516 3 1.008 0.03 3.34617 15.2383 0.72405 101.711 64.4206 -48.4583 2 1 -1 -0.00546443 0.00302011 0.0118648 -31.6313 -2.86499 -19.9586 
4716 295 3 1.008 0.03 5.34253 14.4176 6.17503 103.707 14.4176 6.17503 2 0 0 0.00693684 0.00733459 0.00961774 -3.21942 1.48906 35.5741 
1053 66 3 1.008 0.03 1.85126 10.9558 5.88092 -47.3311 -87.4089 153.428 -1 -2 3 0.00679169 -0.00228506 -0.00260752 7.29425 -13.0452 -4.64884 
8031 502 3 1.008 0.03 8.45664 13.5045 5.43923 106.821 111.869 103.804 2 2 2 0.00670547 0.0127184 0.0134301 -3.27394 11.9555 -3.32709 
5140 322 2 12.01 0.14 2.45356 9.35329 0.863512 2.45356 9.35329 50.0459 0 0 1 -0.000538842 -0.00282648 -0.00177536 -20.8274 2.9302 -17.0352 
4709 295 2 12.01 0.11 5.31512 14.3462 7.31516 103.68 14.3462 7.31516 2 0 0 -0.000652712 -0.00525442 -0.00239567 6.06968 -18.5857 -29.7331 
1051 66 3 1.008 0.03 2.8841 10.4459 4.51567 -46.2983 -87.9188 152.063 -1 -2 3 0.00587262 0.0394892 -0.00286754 36.8692 -13.4143 -1.35951 
8254 516 3 1.008 0.03 5.04973 15.6201 0.575471 103.414 64.8024 -48.6069 2 1 -1 0.00591132 -0.0137029 -0.000202701 0.330131 4.22422 -14.1958 
8253 516 3 1.008 0.03 9.50276 13.7762 0.785511 107.867 62.9586 -48.3968 2 1 -1 0.0246951 -0.0200229 0.0183632 24.4653 -18.6527 14.2761 
8020 502 2 12.01 0.14 8.63533 10.3336 5.70047 107 108.698 104.065 2 2 2 -0.00318543 -0.00330336 0.00622487 -3.79632 -44.3471 16.4689 
8025 502 3 1.008 0.03 8.74799 10.3074 6.79765 107.113 108.672 105.162 2 2 2 0.00423228 0.0128769 0.0024362 -3.47502 6.69524 -7.66552 
8026 502 3 1.008 0.03 9.65946 10.2026 5.336 108.024 108.567 103.701 2 2 2 0.00387374 -0.00741428 -0.00178145 -5.20935 -5.90665 -4.49529 
4952 310 3 1.008 0.03 14.2498 15.0763 0.916938 63.4322 15.0763 0.916938 1 0 0 0.0403072 0.00111679 0.00861825 36.6909 -18.4349 10.4488 
4878 305 3 1.008 0.03 10.3761 9.53514 2.2552 108.741 58.7175 -46.9271 2 1 -1 0.0176768 0.00453249 -0.00856762 -1.13069 1.6065 -4.93835 
9638 604 5 32.06 1.02 14.8581 12.9949 6.99681 14.8581 62.1773 6.99681 0 1 0 -0.000621177 0.00777009 -0.00282714 -39.8879 -5.19187 -31.748 
8022 502 2 12.01 0.11 8.80826 12.6004 5.89449 107.173 110.965 104.259 2 2 2 -0.00539217 0.000974609 -0.00394541 63.4891 9.16586 -39.692 
8030 502 3 1.008 0.03 9.87182 12.4283 5.48937 108.237 110.793 103.854 2 2 2 -0.038716 0.0179156 -0.00329508 -34.9619 15.7617 24.3302 
9651 604 8 19 -0.16 12.1976 15.7564 4.77422 12.1976 64.9388 4.77422 0 1 0 -0.00578214 -0.00469877 0.000877391 -18.4275 -3.41367 -1.72399 
4880 305 3 1.008 0.03 10.9123 11.1858 1.93356 109.277 60.3682 -47.2488 2 1 -1 0.0235824 0.0160925 -0.0172753 2.49706 2.43379 7.53987 
4870 305 2 12.01 0.11 10.8489 10.1902 1.51375 109.214 59.3725 -47.6686 2 1 -1 0.00331933 -0.00178585 -0.00162272 -33.9004 19.5185 14.8311 
4879 305 3 1.008 0.03 11.8146 9.86199 1.35116 110.179 59.0443 -47.8312 2 1 -1 -0.000694037 0.0306512 0.0133126 34.8485 -11.9508 -10.9326 
10108 635 8 19 -0.16 14.4051 8.83983 4.55829 112.77 58.0222 4.55829 2 1 0 -0.000569134 0.000923486 -0.00212869 5.86152 -3.39802 7.50145 
9637 604 4 14.01 -0.66 14.0361 14.2707 6.49252 14.0361 63.4531 6.49252 0 1 0 0.00352545 -0.00106052 -0.00484204 -36.1708 -28.8142 22.4134 
10107 635 8 19 -0.16 13.1371 9.45247 3.00503 111.502 58.6348 3.00503 2 1 0 0.00220069 0.000929418 0.000689696 6.54071 -13.5853 0.439656 
4947 310 2 12.01 0.14 15.1458 14.4373 1.25938 64.3282 14.4373 1.25938 1 0 0 0.00496365 -0.00867946 0.00113284 2.06364 48.955 -15.3138 
4951 310 3 1.008 0.03 14.7368 13.4999 1.39712 63.9192 13.4999 1.39712 1 0 0 0.0105977 0.0223348 0.0244665 -15.8379 -37.5372 4.12667 
4945 310 1 16 -0.4 15.7051 14.8286 2.55849 64.8874 14.8286 2.55849 1 0 0 -0.00490803 0.00085656 0.00155376 9.84306 -1.03872 -34.2496 
4949 310 2 12.01 0.11 14.6664 15.0617 3.4628 63.8488 15.0617 3.4628 1 0 0 -0.00123614 0.00801838 -0.00621038 -17.4761 -2.28892 42.7539 
4956 310 3 1.008 0.03 13.9366 14.2445 3.54258 63.119 14.2445 3.54258 1 0 0 -0.00838259 -0.00832451 0.0292143 4.94578 1.09038 -5.93917 
4957 310 3 1.008 0.03 15.0818 15.1402 4.48365 64.2641 15.1402 4.48365 1 0 0 0.013013 0.0123961 0.0236544 0.00916227 1.07598 -13.7434 
4955 310 3 1.008 0.03 14.1047 15.9853 3.3327 63.2871 15.9853 3.3327 1 0 0 -0.0160048 -0.00376949 -0.00303625 2.64403 2.05508 -9.8751 
9645 604 5 32.06 1.02 12.5968 14.7265 7.078 12.5968 63.9089 7.078 0 1 0 -0.00107135 -0.000449628 -0.00263147 0.166759 -34.7365 -22.7729 
9641 604 7 12.01 0.35 13.9848 11.5966 6.0998 13.9848 60.779 6.0998 0 1 0 -0.00698752 0.000712645 0.00692834 23.0819 14.6487 34.4638 
9644 604 8 19 -0.16 13.8407 11.8926 4.84248 13.8407 61.0749 4.84248 0 1 0 -0.00132009 -0.0021203 0.000391517 -1.71973 -5.88103 -24.7476 
9639 604 6 16 -0.53 16.1872 12.968 6.44581 16.1872 62.1503 6.44581 0 1 0 -0.00686887 -0.00337252 -0.0002887 9.82256 -1.71117 3.15599 
9642 604 8 19 -0.16 12.7832 11.4166 6.60559 12.7832 60.5989 6.60559 0 1 0 -0.00227386 -0.00580573 -0.00262614 -8.98772 -1.09497 -4.53735 
9643 604 8 19 -0.16 14.6121 10.4148 6.23299 14.6121 59.5972 6.23299 0 1 0 0.00387427 -0.000317634 0.00419807 -4.56851 17.5056 -8.8741 
9648 604 7 12.01 0.35 11.5242 14.9345 5.58576 11.5242 64.1169 5.58576 0 1 0 0.00601085 -0.00296779 0.00312197 9.35157 18.4664 -24.7834 
9649 604 8 19 -0.16 11.3264 13.8248 4.88871 11.3264 63.0071 4.88871 0 1 0 0.00592115 0.00111805 -0.0032849 11.3821 -0.915344 3.78109 
9650 604 8 19 -0.16 10.2821 15.4528 5.76398 10.2821 64.6352 5.76398 0 1 0 0.00173425 -0.00494727 0.00707278 31.4245 -4.19635 9.13761 
5592 350 3 1.008 0.03 12.4623 9.12341 6.43865 12.4623 9.12341 55.621 0 0 1 -0.0139781 -0.00565532 -0.00136043 1.27533 10.7956 -22.4327 
10152 638 8 19 -0.16 16.3443 16.485 7.32384 16.3443 16.485 56.5062 0 0 1 -0.000173324 0.00198644 0.00787742 -16.7117 -20.95 25.765 
10104 635 6 16 -0.53 15.7655 9.6545 2.18718 114.13 58.8368 2.18718 2 1 0 -0.00500933 0.00223611 0.00169581 15.8486 10.1844 -24.6198 
8032 502 3 1.008 0.03 8.86272 12.8027 6.96836 107.227 111.167 105.333 2 2 2 0.011092 0.00645558 -0.00371052 -10.3483 -18.9026 1.90303 
9165 573 3 1.008 0.03 16.759 10.3884 7.3885 16.759 10.3884 7.3885 0 0 0 -0.00995953 0.0281372 0.00498144 -32.8958 28.6626 -23.7797 
2987 187 3 1.008 0.03 24.3408 9.58646 0.851664 24.3408 9.58646 99.2164 0 0 2 0.00769721 0.00288263 -0.0047909 -21.4974 -7.27529 -8.42698 
7158 448 2 12.01 0.11 20.4397 12.341 7.41914 20.4397 -36.8413 56.6015 0 -1 1 -0.00531734 -0.00734524 0.00360676 8.76227 49.6167 33.9911 
7166 448 3 1.008 0.03 19.3696 12.5882 7.25624 19.3696 -36.5941 56.4386 0 -1 1 -0.000654123 0.0383022 -0.0188091 11.7502 -4.02767 10.2991 
7154 448 1 16 -0.4 21.2379 13.5625 7.09986 21.2379 -35.6198 56.2822 0 -1 1 0.000663957 -0.00336337 -0.0049463 4.53344 -57.3446 12.6518 
7161 448 3 1.008 0.03 22.9584 12.691 6.25902 22.9584 -36.4914 55.4414 0 -1 1 -0.00758904 0.0164254 -0.013035 4.54174 -17.3563 -12.5418 
7159 448 3 1.008 0.03 24.4066 14.6295 7.12876 24.4066 -34.5528 56.3111 0 -1 1 0.0307284 -0.00900535 -0.00831299 -14.1972 -0.872881 -6.47623 
3240 203 3 1.008 0.03 23.248 11.4464 0.816123 72.4304 60.6288 99.1808 1 1 2 0.00819328 -0.0402958 0.00164674 -8.45298 9.10569 -11.1364 
7807 488 3 1.008 0.03 16.8758 12.2348 2.87257 66.0581 12.2348 2.87257 1 0 0 0.000380242 0.00012725 -0.00285808 17.1541 4.49011 0.457164 
4958 310 3 1.008 0.03 19.4913 13.9938 0.712251 68.6736 13.9938 0.712251 1 0 0 0.0166308 -0.00461257 -0.006377 24.6363 0.205435 12.6195 
9167 573 3 1.008 0.03 21.5716 8.74104 4.20395 21.5716 8.74104 4.20395 0 0 0 0.0269186 0.000366876 0.00609619 17.1221 -28.0477 -15.4838 
4946 310 1 16 -0.4 17.4725 14.5048 0.929389 66.6549 14.5048 0.929389 1 0 0 0.000873969 0.00948689 -6.10496e-06 47.5835 -6.46165 -1.91584 
9160 573 3 1.008 0.03 17.3938 8.77641 5.89667 17.3938 8.77641 5.89667 0 0 0 -0.0069579 0.0158311 -0.0144836 20.6749 -1.12553 10.8416 
9154 573 1 16 -0.4 19.8826 9.49912 4.82463 19.8826 9.49912 4.82463 0 0 0 -0.00318707 -0.00266285 0.00322825 -79.3673 18.3807 5.11622 
7155 448 2 12.01 0.14 23.314 14.6735 6.92056 23.314 -34.5089 56.1029 0 -1 1 0.00102865 -0.00197868 0.00031894 31.2609 -13.353 13.1554 
7806 488 3 1.008 0.03 17.5812 11.6894 4.25308 66.7635 11.6894 4.25308 1 0 0 -0.0220057 0.021391 0.00723743 5.43677 -4.7655 26.8708 
7798 488 2 12.01 0.11 17.8673 12.2087 3.37706 67.0496 12.2087 3.37706 1 0 0 -0.00587791 -0.00443282 -0.00151234 -36.1601 6.05053 -26.094 
7808 488 3 1.008 0.03 18.4987 11.5371 2.79808 67.6811 11.5371 2.79808 1 0 0 -0.00479666 -0.00814619 -0.00362629 3.48613 1.92982 -3.26726 
9168 573 3 1.008 0.03 21.2483 10.4487 3.70925 21.2483 10.4487 3.70925 0 0 0 0.00128522 0.00607943 0.000539634 0.392907 -23.6636 16.5703 
10150 638 6 16 -0.53 19.0404 16.4582 6.61586 19.0404 16.4582 55.7982 0 0 1 0.00622536 0.00147246 0.00298793 17.9792 13.3884 4.86037 
7804 488 3 1.008 0.03 21.3713 16.0789 2.05297 70.5537 16.0789 2.05297 1 0 0 -0.00532389 0.000605565 -0.00329133 42.5046 -4.00152 -17.4189 
3235 203 2 12.01 0.14 22.6982 12.3926 0.906445 71.8805 61.5749 99.2711 1 1 2 -0.00883825 -0.00998954 0.000258464 -0.918773 -35.3637 -5.34098 
7799 488 3 1.008 0.03 21.4759 14.6523 3.57238 70.6582 14.6523 3.57238 1 0 0 0.00335333 0.00994327 -0.0157361 -5.23024 -16.0731 -1.91258 
7793 488 1 16 -0.4 19.6356 15.3648 2.66819 68.8179 15.3648 2.66819 1 0 0 0.0024293 -0.00336443 -0.00263764 2.64636 -7.0755 18.8593 
10454 665 9 24.305 2 17.6096 15.1579 2.77847 66.792 15.1579 2.77847 1 0 0 0.00258297 -0.00100537 -0.002229 14.0622 10.6006 4.50761 