ITEM: TIMESTEP
5000000
ITEM: NUMBER OF ATOMS
10479
ITEM: BOX BOUNDS pp pp pp
1.08224 48.8568
1.14437 48.8836
1.12017 48.8918
ITEM: ATOMS id mol type x y z ix iy iz vx vy vz fx fy fz 
5284 1 2 4.01174 7.73399 7.6083 0 1 0 -0.00114081 0.00556382 -9.91691e-05 -4.27384 34.8028 -39.7348 
5283 1 2 2.65315 7.10929 7.26705 0 1 0 0.00198391 0.00140775 0.00241661 30.2697 -24.4306 20.7536 
5281 1 1 2.9063 5.72442 6.87375 0 1 0 -0.000983956 0.00127108 -0.00136499 -13.0787 15.0482 -6.76871 
4582 1 2 5.61484 6.00682 3.4596 -1 1 0 0.00835169 -0.00330188 -0.00497008 -3.40743 43.2681 0.0179859 
4591 1 3 5.27493 6.03589 4.52274 -1 1 0 0.00803228 -0.0047855 0.00222981 -13.8776 -10.5674 -20.8071 
5282 1 2 2.50268 5.32644 5.54533 0 1 0 0.00046622 -0.00366617 0.000737282 -38.9167 10.1918 -28.7139 
4581 1 1 6.99703 6.28307 3.61122 -1 1 0 -0.00800403 0.00221048 0.00914778 26.8768 7.24572 -30.6341 
5291 1 3 4.63789 7.0973 8.13393 0 1 0 0.0451994 -0.00599213 -0.00146271 17.68 -29.4681 20.1934 
7568 1 3 4.1576 3.21759 7.46646 0 1 -1 -0.010276 0.0127417 0.0025847 0.447726 -14.1378 23.7479 
5285 1 1 4.65941 8.0874 6.34846 0 1 0 -0.000138657 0.00409593 -0.00761412 17.0269 -11.1259 -9.25376 
5293 1 3 6.65709 7.20322 6.52088 0 1 0 0.012848 0.00543035 -0.00427605 -12.3 -15.1472 3.37785 
5286 1 2 6.14292 8.13484 6.33074 0 1 0 -0.000644049 -0.0062717 -0.00169261 -10.2497 26.8959 54.9416 
4588 1 3 7.08497 6.99582 1.56781 -1 1 0 -0.0171455 0.00110001 0.0107587 -16.4084 5.39376 2.3189 
5361 1 1 1.32041 3.23383 2.9564 1 1 1 0.00436871 -0.00243316 -0.00129086 4.22446 30.3182 -24.495 
5362 1 2 1.92645 4.27501 2.06302 1 1 1 0.00018435 -0.000584399 -0.00194764 -1.91789 -42.8732 5.67932 
5368 1 3 2.83607 3.76754 1.6993 1 1 1 0.00130906 -0.01011 0.0104817 4.42059 17.7401 5.32213 
5376 1 3 2.08914 5.16519 2.66725 1 1 1 0.0197543 0.000163934 -0.00978617 9.68035 3.07885 -2.26424 
4580 1 2 7.70032 6.53854 2.32301 -1 1 0 0.00056572 0.00761929 0.000534449 -4.96313 -9.26146 19.0902 
5296 1 3 2.63997 6.12984 4.73802 0 1 0 -0.0167699 -0.000978089 0.022481 9.58512 -24.6295 28.4315 
4589 1 3 5.46863 5.11291 2.88784 -1 1 0 -0.025607 -0.00797787 -0.00223085 -2.7917 -21.3266 5.63535 
4590 1 3 5.19312 6.83609 2.82292 -1 1 0 -0.0227937 -0.0125245 -0.00964315 1.97906 -15.0582 22.5531 
6220 1 3 7.11596 2.85438 3.11482 0 3 0 -0.0135353 0.00673714 -0.0119451 2.6826 -15.468 4.40008 
4586 1 3 8.80438 7.88217 3.58643 -1 1 0 -0.0214475 0.0184651 0.0321148 7.40228 -4.61391 -2.08615 
4579 1 2 8.85934 7.50638 2.55467 -1 1 0 -0.00799278 -0.00540471 -0.00201336 -16.0733 61.353 -13.2006 
4587 1 3 8.01813 5.58889 1.91288 -1 1 0 -0.00980741 -0.0263926 0.0172461 7.60314 -5.42054 -0.956413 
6524 1 3 7.74052 4.88985 6.59877 0 0 0 0.00660469 -0.0110827 0.047715 -1.91095 -0.692439 -2.17972 
6516 1 2 8.68363 5.12087 7.09395 0 0 0 -0.00440342 0.00361932 -0.00253174 -17.7505 26.8469 21.3266 
6213 1 1 8.91358 2.33959 4.13314 0 3 0 0.0012107 0.00284742 0.00383401 -16.5791 23.5186 -21.6204 
6219 1 3 7.11282 3.11578 4.79253 0 3 0 0.0258661 0.00344265 -0.00942824 -10.2659 16.7695 28.1901 
6212 1 2 7.43252 2.41792 4.08416 0 3 0 -0.00055719 -0.00643408 0.00214696 41.633 18.9302 -28.3327 
6522 1 3 9.04104 7.28702 6.66135 0 0 0 0.0146309 0.0224459 -0.00710301 -9.80458 -12.6608 -13.0774 
5276 1 3 4.74187 8.84883 2.46569 2 2 1 0.016521 -0.00102408 -0.0356412 -3.51597 24.9735 14.2363 
5370 1 3 1.88897 1.57836 1.79254 1 1 1 -0.00715034 -0.00632979 0.0099263 -6.50574 -1.0592 2.8677 
5367 1 3 1.36982 4.5362 1.14755 1 1 1 -0.0265836 0.00613647 -0.00137698 -10.4107 -6.35258 12.0092 
5288 1 3 2.99551 4.38824 5.36869 0 1 0 -0.00506062 -0.00591946 -0.00160032 15.7053 -3.81207 -13.5331 
7560 1 3 3.9444 1.48839 8.10764 0 1 -1 0.0131137 0.0152685 -0.00225096 -8.92715 37.3909 7.11352 
7554 1 2 4.02717 2.59253 8.40359 0 1 -1 -0.000531549 0.00256771 -0.000507518 18.7144 -25.3697 -2.5137 
7559 1 3 3.1435 2.95795 8.96947 0 1 -1 -0.0125301 -0.0147567 -0.0197056 9.77238 -7.597 -5.64213 
6025 1 3 8.29278 8.35811 8.57676 2 1 0 -0.0127078 -0.0232449 0.0101809 3.83468 -0.0741618 -13.3728 
5287 1 3 1.42366 5.0133 5.46803 0 1 0 0.0253272 0.0103985 0.0215663 17.5595 15.0195 14.3458 
5295 1 3 6.55497 8.49675 5.41209 0 1 0 -0.0132751 0.0133555 -0.0151182 -3.90669 12.5288 -15.5223 
5294 1 3 6.40082 8.81698 7.20252 0 1 0 -0.00946891 0.00586902 -0.0021673 0.723079 -13.0746 -28.4535 
864 1 3 1.31306 1.48346 5.45362 1 2 0 -0.00922499 -0.0070169 0.0248836 10.2271 -7.45567 10.4361 
5290 1 3 2.01548 7.71776 6.71026 0 1 0 -0.0178311 0.01202 0.0111429 -11.2234 9.71976 -40.7684 
5292 1 3 3.89613 8.65146 8.16748 0 1 0 0.0206553 0.00869095 -0.000282363 -4.06558 5.04451 6.73905 
6517 1 1 8.35757 5.6534 8.43955 0 0 0 -0.00353377 -0.0090303 -0.00308517 7.80656 -7.2535 -30.6886 
6526 1 3 6.92353 4.20181 8.93051 0 0 0 -0.0144486 -0.00162771 -0.0114986 8.39307 -1.98852 -13.5634 
5289 1 3 2.10264 7.0507 8.14661 0 1 0 0.0251325 0.014312 -0.0178018 -12.1372 -6.02542 34.5999 
1551 1 3 8.73682 1.6917 8.22067 0 1 -1 0.0107341 0.00792896 0.00936525 -20.2079 18.9437 -1.19749 
4585 1 3 8.75323 8.43461 1.87453 -1 1 0 -0.017866 -0.00747168 0.0251303 1.96259 -36.4904 20.7377 
10251 2 7 1.28434 8.24516 2.98622 0 1 0 -0.00295594 -0.00376109 -0.0023019 13.8202 0.983338 -1.22222 
6222 1 3 9.63436 4.39339 4.0853 0 3 0 0.00565398 -0.003439 -0.0150683 -9.94589 -10.2719 -4.88284 
6521 1 3 9.28697 6.05544 5.29307 0 0 0 -0.0275521 0.0151988 0.0171636 4.24175 11.1613 -9.40422 
6515 1 2 9.38527 6.28324 6.34626 0 0 0 0.00551584 0.00530603 -0.00614826 37.0444 -32.3746 44.7597 
6223 1 3 9.25218 3.63046 2.53195 0 3 0 -0.00443767 -0.00604471 0.00575043 -4.58536 4.42636 -35.898 
4577 1 1 10.1018 6.89275 2.27975 -1 1 0 0.00293337 -0.00181243 -0.00318584 46.4218 -5.64034 2.72496 
1540 1 2 10.9098 1.6097 6.65128 0 1 -1 0.00320348 -0.00481791 -0.00196011 42.763 -16.1336 -58.4473 
6214 1 2 9.64165 3.46496 3.48309 0 3 0 0.00101871 0.000345168 -0.00120554 -11.3767 -21.6362 68.2043 
6514 1 2 11.5583 7.09581 6.01515 0 0 0 0.00109335 -0.00321737 0.00163166 39.0331 -1.23685 1.31175 
6528 1 3 11.864 6.57123 5.09998 0 0 0 -0.0124422 -0.00632457 -0.0149127 -3.28072 1.43399 2.38509 
6513 1 1 10.8031 6.18605 6.82337 0 0 0 2.45186e-06 -0.00381338 0.000375225 -42.6368 15.9671 -32.7977 
6519 1 3 12.4838 7.31674 6.60177 0 0 0 -0.0186213 -0.0181631 -0.00112034 -14.6791 3.13777 -11.8594 
6221 1 3 10.6461 3.10755 3.53283 0 3 0 0.000511574 0.0195187 0.000212653 19.6283 1.874 -17.2972 
1539 1 2 12.2259 2.47536 6.46133 0 1 -1 0.00262378 0.00388968 0.00497603 -7.39126 16.844 19.0387 
1545 1 3 12.4837 2.74346 5.40986 0 1 -1 0.0173382 0.0213152 0.0129164 -14.704 -0.961533 12.3633 
5390 1 3 14.5156 6.04116 3.15155 0 1 0 0.00966693 -0.00249632 -0.0282613 -8.81465 4.14287 -8.90947 
6520 1 3 11.0232 8.01621 5.71104 0 0 0 0.0171091 0.00255121 -0.0113534 0.767075 -6.81755 11.1799 
5382 1 2 14.2575 5.13148 3.68447 0 1 0 0.00461436 -0.00092893 -0.00321719 5.71231 -0.177553 24.084 
5389 1 3 13.5235 4.50195 3.14336 0 1 0 -0.00939262 0.000684226 -0.0320653 3.90709 10.2732 5.37672 
1546 1 3 12.1456 3.37258 7.11893 0 1 -1 0.0104176 -0.00955696 0.0471591 -6.76453 -5.44936 -17.8222 
5391 1 3 13.8361 5.44911 4.69454 0 1 0 4.50607e-05 0.0239034 0.00211404 17.6292 -16.1484 -23.0599 
1537 1 1 13.3762 1.80251 6.98997 0 1 -1 -0.000100856 -0.000941192 0.00964995 27.6729 -4.70617 0.192221 
5381 1 1 15.5199 4.37623 3.75458 0 1 0 0.0113782 0.00546325 -0.000860846 -4.67232 2.37146 22.2702 
6282 1 3 14.2543 6.08029 8.31839 0 0 -1 -0.0116936 0.0223564 0.0134733 -12.2243 5.85681 16.4938 
1541 1 1 10.7308 1.42137 8.05292 0 1 -1 -0.00132035 -0.00468974 0.00453634 -23.4974 -8.94334 22.9682 
1538 1 2 14.5562 2.64067 7.36861 0 1 -1 -0.000975503 0.00644007 -0.00130993 -56.5917 -28.8639 3.24962 
4592 1 3 11.4813 8.406 3.09466 -1 1 0 0.0262946 -0.00423045 0.0339051 -13.1853 -10.7004 -13.9571 
4578 1 2 11.3068 7.77894 2.18089 -1 1 0 0.00577313 -0.00202371 -0.00654741 0.42799 2.86008 -5.27192 
7049 1 3 13.7095 9.07997 6.13907 1 0 -1 -0.0184403 0.00767243 0.0280702 23.5802 7.51671 -18.8913 
1552 1 3 15.4081 1.96228 7.22735 0 1 -1 -0.0106562 0.021031 -0.0341338 7.57817 14.9811 -1.52442 
1543 1 3 14.3699 2.83073 8.44515 0 1 -1 0.0271664 0.0315077 -1.98801e-05 12.4243 7.11076 -10.6074 
4584 1 3 12.2406 7.18305 2.04331 -1 1 0 -0.00485598 -0.0117859 0.0140349 -17.8251 1.36973 0.926677 
1548 1 3 10.0838 2.10366 6.10081 0 1 -1 -0.00134709 -0.00487003 -0.0322856 3.10697 -1.50458 24.5055 
6026 1 3 10.072 8.30242 8.5193 2 1 0 0.0103887 -0.00487799 -0.0379704 8.71706 -13.6009 -1.89237 
1544 1 3 14.5251 3.57548 6.77602 0 1 -1 0.0211157 0.00118723 0.0297349 12.332 -8.74576 2.08701 
6280 1 3 13.6478 8.29477 8.33963 0 0 -1 0.00426871 0.00332614 0.0119125 9.46588 -14.916 19.9163 
6019 1 2 9.21928 8.94404 8.61602 2 1 0 0.00262738 0.00754352 0.000952523 -21.0051 -23.3017 26.0971 
7048 1 3 16.1127 7.78896 5.4187 1 0 -1 0.0120411 -0.00353366 -0.0222541 9.01391 -16.2362 9.75648 
4135 1 3 15.1694 1.77615 3.82322 1 1 0 -0.0168175 -0.00917798 0.0330426 -0.962394 -3.88158 -11.7903 
5145 1 3 14.8733 4.19825 1.32108 0 1 0 0.00284888 -0.016982 0.0313745 20.7206 10.146 14.616 
6523 1 3 9.27701 4.19577 7.15397 0 0 0 -0.0129472 0.00504934 -0.00718108 3.49608 7.28231 -0.181629 
6283 1 3 12.2529 4.72978 9.05556 0 0 -1 -0.00609701 -0.0024511 0.0106048 2.63751 -16.0997 -7.25392 
4583 1 3 11.2081 8.42604 1.27119 -1 1 0 -0.0244757 0.0143286 0.0106597 -0.625542 -9.1977 18.6528 
4130 1 2 15.5864 1.32044 2.89994 1 1 0 -0.000266087 0.013565 0.0001504 22.4592 24.1072 29.061 
4144 1 3 16.6887 1.31826 3.05031 1 1 0 0.000779364 0.00286004 -0.0214688 -13.1714 -14.4915 -2.37984 
5380 1 2 16.6842 5.0907 4.31423 0 1 0 -0.00353313 -0.000420896 0.00714637 -40.3048 -31.6267 54.833 
7042 1 2 16.4187 8.80875 5.29666 1 0 -1 0.00379522 -5.36521e-06 -0.000918361 -17.2131 20.4171 6.33638 
5388 1 3 16.4694 5.45232 5.40305 0 1 0 -0.0362856 0.0122241 -0.00914318 6.407 -12.1847 -48.1082 
4136 1 3 15.4214 1.99296 2.08068 1 1 0 -0.0109695 -0.00502373 -0.0217722 -4.44202 -5.10491 -2.59771 
7341 1 3 16.9862 7.06132 8.99778 0 1 0 -0.00627184 -0.000266775 -0.0154023 -18.8431 -0.696686 14.6006 
5387 1 3 16.763 5.88337 3.63362 0 1 0 -0.00952322 -0.017482 0.00457203 21.7099 28.5965 -12.2101 
5148 1 3 13.0234 4.9192 1.125 0 1 0 -0.00688273 0.00414802 -0.0222444 -9.52026 17.2138 -9.08405 
4889 1 3 1.30997 14.2511 6.21876 1 0 -1 -0.0361719 -0.0186982 0.00119723 -27.8984 0.310728 -11.0505 
6028 1 3 8.83626 9.64148 6.62617 2 1 0 0.00521793 -0.0175522 0.00845853 -22.3633 -13.2828 -22.4537 
2071 1 3 7.58001 13.324 1.82158 0 1 0 0.025809 0.00429167 -0.00719218 -10.7084 0.101646 -0.95356 
2080 1 3 6.17805 14.4821 1.55467 0 1 0 -0.0124471 -0.00607142 -0.0119152 9.08304 -16.5726 -2.72135 
3759 1 3 1.1006 13.3056 3.19009 0 1 0 -0.0175124 0.00498854 0.0273823 1.8768 1.80964 9.45822 
4950 1 2 4.02671 13.7618 8.45625 0 1 -1 0.00415859 0.00905745 0.00252646 -17.3391 -20.1751 1.92309 
5273 1 3 3.8 9.70274 4.57816 2 2 1 -0.0121461 0.022367 0.028881 -6.51452 -8.53767 8.22262 
5268 1 2 4.61153 9.96564 2.57577 2 2 1 -0.00100882 -0.00106401 -0.00736896 35.0027 -41.6939 -2.51393 
5265 1 1 3.67947 11.596 3.87692 2 2 1 -3.67881e-05 0.000426578 -0.00603673 -42.4343 54.8449 12.5373 
5271 1 3 2.87296 11.556 5.77667 2 2 1 0.0285632 0.0234494 0.0137566 0.892145 12.565 4.41146 
5272 1 3 2.61409 13.0773 4.83901 2 2 1 0.000722598 0.00925405 0.0283096 -17.9296 14.3127 -0.727417 
5274 1 3 5.31939 10.6864 4.48347 2 2 1 0.0270153 0.00863071 0.00248789 -0.249079 -9.8205 6.39501 
5267 1 2 4.37171 10.4211 4.02388 2 2 1 -0.00469915 0.00690154 0.00706225 21.7799 -14.1471 -17.7533 
5266 1 2 3.30348 12.3216 5.10958 2 2 1 -0.00224577 0.00616579 0.000216663 13.7279 -55.6217 -31.6212 
5280 1 3 4.20327 12.7602 5.4725 2 2 1 -0.024144 0.0154971 0.011183 12.4299 4.38443 14.5575 
9581 2 2 5.0157 15.8407 4.34391 0 0 0 -0.00739095 0.00690937 0.0069291 46.9941 -36.6851 -28.5676 
9577 2 4 6.68829 13.4873 4.53333 0 0 0 0.00237351 0.00277594 0.00256536 17.451 -13.2162 -4.57151 
9580 2 6 7.52205 15.614 5.41839 0 0 0 0.00211971 -0.00505216 0.00267998 2.07221 1.21853 -22.8856 
9578 2 5 6.33923 14.8411 5.13137 0 0 0 0.0030495 0.00478583 0.00123552 -8.95872 43.3961 -21.9233 
9585 2 5 8.02013 12.5304 5.18124 0 0 0 -0.00309942 0.0033788 -0.00265637 -35.7581 -24.0558 -1.38156 
9586 2 6 7.30817 11.2635 5.53153 0 0 0 -0.00149624 0.000720425 -0.00418306 22.6336 28.3309 -0.641155 
9579 2 6 6.38265 14.8361 6.55951 0 0 0 0.00591451 0.00257086 0.00622371 1.15246 1.22906 19.3595 
10458 3 8 8.13597 15.3022 7.04035 0 0 0 0.000773607 0.00166252 -0.00173192 -12.8893 2.07643 21.2603 
9583 2 7 5.25097 16.1115 3.01781 0 0 0 0.00205041 0.00225009 -0.00430631 3.05894 -4.89746 22.7935 
9587 2 6 8.51712 13.3675 6.27834 0 0 0 -0.00397984 -0.00372136 -0.00676071 7.39613 11.4597 6.4158 
9582 2 7 3.9699 15.0547 4.36403 0 0 0 -0.00231919 0.00184834 -0.00247987 -36.0758 8.80685 2.52335 
9670 2 6 8.28003 14.4729 8.64727 0 0 0 -0.00502989 -0.00403191 -0.00249901 -10.922 4.1254 -14.2135 
5269 1 1 5.90293 10.551 2.19028 2 2 1 0.00700849 0.000660933 -0.00182234 -13.6259 -2.26775 28.2037 
5275 1 3 3.79765 10.1998 1.90567 2 2 1 -0.00659641 0.0190463 -0.0107346 -4.75374 14.2877 -4.09186 
3757 1 3 1.74665 12.4162 1.78672 0 1 0 0.0175709 0.00551517 0.000636637 -0.766461 -3.66328 15.3572 
1129 1 3 9.01284 16.4803 2.88508 -1 -1 1 -0.00459959 -0.000438983 0.0142485 -6.2157 -3.85476 6.3292 
9584 2 7 4.82497 16.9974 4.92683 0 0 0 0.000213968 -0.0009104 0.00656414 -10.2177 18.1984 17.1912 
4957 1 3 4.22479 13.6106 7.38499 0 1 -1 0.00212813 -0.0211175 -0.00770652 10.2633 0.00448449 9.519 
6027 1 3 8.9163 10.9006 7.81122 2 1 0 0.0169761 -0.0171634 0.0252061 -14.6508 23.9311 5.98094 
10309 2 7 1.37524 10.8865 8.55778 1 1 0 0.00454106 -0.00207745 0.00225048 23.3828 9.31523 -10.2166 
4959 1 3 2.98356 13.4738 8.61921 0 1 -1 -0.00817743 -0.00734501 0.027917 -1.3768 8.17194 2.25752 
4254 1 3 2.65119 16.4178 7.6023 0 0 0 0.00395444 0.0153944 -0.00308666 -14.9479 -17.4164 2.36332 
4245 1 1 4.53084 17.0313 8.03926 0 0 0 -0.000914783 0.00197289 0.00557761 -7.66285 16.3781 -16.514 
4956 1 3 4.56473 11.1565 8.23865 0 1 -1 0.0180733 -0.0295612 -0.00839697 -3.74324 -5.80269 -11.1974 
4958 1 3 4.22534 14.7709 8.77415 0 1 -1 0.0215235 0.0183286 -0.0181384 -4.20427 11.256 -3.31667 
9591 2 7 9.01543 11.4324 3.04336 0 0 0 0.000696992 -0.00218769 0.00194677 2.89038 -1.67411 -2.05436 
4455 1 3 11.9146 11.5333 1.79211 0 0 -1 0.0212429 0.029331 -0.00775154 4.40681 3.63751 4.72019 
7041 1 1 15.3044 9.36769 4.58061 1 0 -1 -0.00311777 0.00345105 -0.00432245 -12.1557 8.4504 5.38813 
4452 1 2 11.579 14.3921 1.28491 0 0 -1 -0.00671877 0.00113033 0.00506181 -16.9829 -13.2265 5.095 
7923 1 2 16.5335 14.0349 3.99622 0 0 -1 0.009463 -0.00915692 -0.00610397 25.2204 43.1309 -57.5472 
7043 1 2 14.0952 9.7678 5.32919 1 0 -1 0.00133444 -0.00575028 0.00651106 -20.6343 4.26166 3.71939 
7050 1 3 13.2721 9.83698 4.6065 1 0 -1 -0.00363165 -0.00309702 0.000586784 5.53175 -5.47946 -2.60228 
9588 2 2 9.31081 12.399 3.92872 0 0 0 -0.00412493 0.0052117 -0.00226789 16.9075 -6.3146 -5.7181 
7950 1 3 15.6302 10.3943 2.29839 -1 2 -1 -0.00647509 0.0195821 0.0117381 7.09047 9.70919 20.3048 
7942 1 2 15.1635 11.195 1.73776 -1 2 -1 0.00106976 0.00663429 0.00307585 -17.9803 15.2037 38.5839 
6020 1 2 9.3054 9.97591 7.49546 2 1 0 0.0036559 0.0078759 0.00192863 39.8249 4.91469 12.681 
7951 1 3 14.4591 11.8559 2.36447 -1 2 -1 0.00493498 -0.00197341 -0.00711442 24.467 -25.6614 -17.5557 
9589 2 7 9.47897 13.5252 3.23839 0 0 0 -0.00296661 0.00448188 0.00617124 -10.3266 8.87588 0.923393 
6031 1 3 12.4993 10.4536 8.15735 2 1 0 -0.00411445 0.0194843 -0.00775183 0.749525 -7.20645 0.550209 
6022 1 2 11.5082 10.8804 8.04415 2 1 0 0.00430893 0.0059875 0.00495996 -28.8782 36.2772 10.3994 
7051 1 3 13.2091 11.6255 5.87212 1 0 -1 0.0185925 0.00675431 -0.00496124 -5.22325 12.328 2.55564 
9590 2 7 10.5555 12.1679 4.41837 0 0 0 -0.00147008 -0.00426863 0.00175075 -12.1082 -8.11539 6.08136 
9677 2 6 11.8622 14.0953 6.71589 0 0 0 -0.00432548 0.00165768 -0.00795735 2.16438 -2.46421 1.12001 
9676 2 6 9.97825 15.598 6.88656 0 0 0 0.00381305 0.000104063 0.0100159 -13.6884 -1.03482 23.903 
9675 2 5 11.2068 15.0825 7.56753 0 0 0 -0.00221782 0.00324184 0.00272879 -40.355 -12.0285 -15.6673 
7044 1 2 14.2077 11.2154 5.85986 1 0 -1 -0.00585733 0.00392946 0.00211178 20.9003 -28.7336 7.51929 
7052 1 3 14.9121 11.8032 5.2546 1 0 -1 -0.00164038 0.00388745 -0.011224 -8.2783 -3.19661 -5.27499 
7054 1 3 14.4246 13.0714 7.65022 1 0 -1 -0.0154649 -0.0266932 0.0255691 6.54211 -2.34679 5.49753 
7046 1 2 15.2532 12.3438 7.61656 1 0 -1 0.00866305 -0.00115816 2.92644e-05 16.0628 36.5742 -20.188 
7045 1 1 14.7471 11.1166 7.2049 1 0 -1 0.0015541 -0.0010746 0.00138438 -12.5689 -19.669 -15.9366 
7928 1 3 13.8433 13.9815 3.83621 0 0 -1 -0.0249706 -0.0101824 0.00677976 -15.6067 -38.1114 -48.6684 
1122 1 2 11.295 16.4659 4.1836 -1 -1 1 -0.0110304 -0.000800883 0.00393483 21.8697 -8.81194 -29.2044 
1128 1 3 11.6597 16.5399 5.24544 -1 -1 1 -0.0211575 -0.0179232 0.0138444 -7.60015 -1.78567 -25.0527 
7921 1 1 15.5682 15.0384 4.25361 0 0 -1 -0.000291367 0.00168259 -0.00319426 -24.6037 2.14925 7.10726 
6021 1 1 10.7029 10.155 7.1017 2 1 0 7.18182e-05 0.00328614 0.000340642 -1.45679 -5.19435 -1.74592 
7922 1 2 14.2564 14.504 4.58003 0 0 -1 -0.00844848 0.000771241 0.000203374 -0.762159 60.8288 33.85 
7927 1 3 14.2719 13.9347 5.46782 0 0 -1 -0.00734511 -0.0072705 0.0145918 7.35456 -15.4197 18.8921 
7936 1 3 13.5358 15.3232 4.77006 0 0 -1 -0.0183534 -0.035583 -0.00583098 16.108 -3.14279 -1.57811 
9678 2 2 12.2939 16.3373 8.11392 0 0 0 -0.00157983 -0.00391751 0.00246133 -1.33162 20.3292 16.8416 
7053 1 3 15.7501 12.2353 8.55699 1 0 -1 0.0168686 -0.017498 -0.00134705 3.0711 -0.881306 15.8898 
7055 1 3 16.0153 12.6784 6.86177 1 0 -1 -0.0353826 0.0025592 -0.0173202 -13.3236 -3.85655 15.5348 
6030 1 3 11.6218 11.9473 7.65306 2 1 0 7.60842e-05 0.03023 -0.00884847 -6.30277 -32.9744 17.2961 
9667 2 4 10.6303 14.2166 8.96958 0 0 0 0.00266103 -0.000571671 0.00176579 -2.60677 -11.2665 9.84953 
1127 1 3 10.7612 15.5457 3.93599 -1 -1 1 0.0045434 -0.0420535 -0.0213198 -6.2592 -0.303289 19.1274 
6029 1 3 10.8993 10.8403 9.00352 2 1 0 0.00323907 0.00373333 -0.0169591 31.5793 11.065 -16.9551 
4459 1 3 12.002 13.6959 2.05493 0 0 -1 0.0368751 -0.0245649 -0.0017522 -6.26195 9.94076 -15.4258 
1136 1 3 12.1283 16.4022 3.43646 -1 -1 1 0.0297295 -0.0284544 0.00492023 -6.17688 9.76463 20.1432 
9679 2 7 13.1662 16.6149 7.14317 0 0 0 -0.00159697 -0.00173449 0.000703702 14.3842 5.31778 1.92621 
4463 1 3 14.1576 14.4162 1.80562 0 0 -1 0.00128315 0.0211353 0.0411596 1.34608 -18.4204 3.48458 
4460 1 3 10.7587 14.9251 1.79232 0 0 -1 -0.00714652 -0.00189211 -0.0100604 3.65364 -1.59598 -10.1564 
7930 1 3 16.687 13.449 4.82067 0 0 -1 0.00486003 0.0109911 -0.0138178 0.930324 -33.8414 34.3697 
7056 1 3 16.5524 9.33502 6.2652 1 0 -1 0.00586449 0.0217089 -0.000428288 -0.123826 -6.46975 -9.21831 
7929 1 3 16.2551 13.497 3.07047 0 0 -1 0.0140785 -0.00408638 -0.0113926 1.31376 -2.22965 11.9248 
7949 1 3 15.9447 11.8213 1.30835 -1 2 -1 -0.000216124 -0.0261816 0.012734 -1.44098 -2.99522 -14.019 
1131 1 3 7.87004 18.2981 1.86353 -1 -1 1 0.0140458 0.00116793 -0.0238331 22.634 19.9645 35.8258 
5702 1 2 3.74118 18.6645 1.21902 1 1 -1 0.00445269 0.00255352 -0.0067253 13.1342 -13.971 -27.4587 
9531 2 7 1.15202 20.0774 4.97436 1 0 0 -0.00835103 0.00857255 0.00248718 -0.344624 28.9426 -0.182989 
9518 2 5 1.33597 22.5606 7.51458 1 0 0 0.000463529 -0.00594665 -0.000466675 29.4505 -16.123 3.80209 
9517 2 4 1.35986 23.2428 6.16925 1 0 0 -0.000978641 -0.00251116 0.00259806 -2.46337 25.3204 -18.365 
4243 1 2 6.79403 17.4842 8.73976 0 0 0 -0.00244599 -0.00507073 -0.0049541 31.2264 54.2495 -2.87527 
9527 2 6 1.57604 23.0665 3.6485 1 0 0 0.00469433 0.00227124 -0.000537487 -17.1841 1.92816 2.10605 
7108 1 2 6.90446 24.4852 5.64091 0 0 0 0.00218488 -0.00345853 -0.0066474 56.4102 27.9528 -47.8396 
5710 1 3 4.04808 18.4072 2.23848 1 1 -1 0.00368235 0.00756645 0.00974526 -5.93891 12.8652 3.36129 
4241 1 1 7.68428 17.1239 7.6065 0 0 0 0.00108489 -0.000988543 0.00613487 1.35988 -0.208441 29.5671 
1124 1 2 8.62193 18.5939 2.69839 -1 -1 1 0.00432044 -0.00539537 -0.00172169 -43.8122 -34.0256 -42.6934 
9522 2 7 3.37598 24.0796 8.36907 1 0 0 -0.00337011 0.00392489 0.000858007 -5.60169 2.00083 -14.7197 
4246 1 2 3.17256 17.3373 7.5374 0 0 0 0.00231031 -0.00598685 -0.00686355 17.4982 9.10295 18.9139 
1126 1 2 6.88837 19.6133 4.13013 -1 -1 1 0.00342552 0.00518475 -0.0023722 41.6719 -9.55473 33.8146 
4253 1 3 2.71982 18.0408 8.24974 0 0 0 0.0103266 -0.00492825 0.00368891 -1.81013 1.46448 -9.15121 
4255 1 3 3.06991 17.6578 6.48677 0 0 0 -0.0291169 -0.00665637 0.0203603 13.8098 5.8096 8.37655 
9530 2 7 3.28349 20.1322 5.36939 1 0 0 0.00444038 -0.00362884 0.00273318 -23.4017 27.7922 -31.8776 
9528 2 2 2.27046 20.7832 4.63097 1 0 0 -0.00236052 -0.00313428 -0.00592104 22.2273 -66.9468 5.10244 
9529 2 7 2.41288 20.4802 3.295 1 0 0 0.00455959 0.00500954 0.00261163 8.41514 3.2861 23.2955 
9525 2 5 2.2464 22.5716 4.85012 1 0 0 -0.00597749 0.007125 0.00230037 -22.2529 -6.56172 -21.4124 
7116 1 3 6.08955 24.337 5.01256 0 0 0 0.0022888 -0.0180244 0.00394697 -33.0684 -15.2304 -13.5466 
4242 1 2 8.3866 18.2973 7.12777 0 0 0 -0.0060006 0.00279499 0.000972719 -8.36914 -3.96014 -2.40121 
9526 2 6 3.60506 23.0131 4.9251 1 0 0 0.00292545 -0.00312308 -0.00517886 37.4184 8.30602 19.1577 
8214 1 2 5.76847 21.6115 7.30924 1 1 0 0.00399135 0.00912341 0.00100634 -6.75445 -31.3563 -4.12277 
8221 1 3 6.28374 21.4574 6.37997 1 1 0 -0.016605 0.0170234 -0.0124991 5.09007 0.227431 -11.7411 
8222 1 3 5.24141 22.4989 7.25805 1 1 0 0.00439173 -0.0101444 -0.000941438 -18.3882 36.0608 -0.0487604 
4247 1 3 7.62364 19.0458 6.90621 0 0 0 -0.0310323 -0.0241765 0.016512 6.99469 5.37942 -2.83795 
7114 1 3 8.19091 23.4378 4.26115 0 0 0 0.000200681 0.0147283 0.0117578 -2.39981 -15.8627 -28.85 
7107 1 2 8.20985 24.3468 4.79269 0 0 0 3.1356e-05 0.00137225 0.00158723 1.95686 3.08693 68.732 
4248 1 3 8.86483 17.9758 6.21545 0 0 0 0.0293845 0.00278785 0.0258602 9.74349 5.80776 -8.26939 
1125 1 1 7.98213 18.6916 3.9716 -1 -1 1 -0.0036035 -0.00675631 -0.00395966 -8.0833 -4.06205 16.6744 
1133 1 3 6.22028 19.4264 3.37273 -1 -1 1 -0.013181 0.0179209 0.0249805 -38.0646 -6.51384 -25.8231 
8223 1 3 5.04895 20.7958 7.42085 1 1 0 0.00387575 -0.00933812 -0.000252505 3.88207 -0.368896 10.1045 
1135 1 3 6.51708 19.4664 5.15256 -1 -1 1 0.00243428 -0.00178526 0.00732951 -11.5258 -0.519517 -9.41825 
1134 1 3 7.27213 20.6052 4.07285 -1 -1 1 0.00277267 -0.0100916 -0.00865629 6.15252 17.1886 -4.20128 
9521 2 2 2.20379 23.5444 8.76163 1 0 0 -0.000169243 -0.00556891 0.00423906 12.9944 0.382731 35.171 
8213 1 1 6.75575 21.6783 8.32838 1 1 0 0.00220852 0.00321924 -0.00185362 34.0325 1.76183 -15.536 
9520 2 6 1.8504 21.2272 7.46923 1 0 0 -0.00606684 -0.00310839 0.000738122 7.38859 -1.86251 8.56987 
7115 1 3 6.94833 23.8596 6.43522 0 0 0 -0.017604 0.0305028 -0.0166569 -1.46859 -33.7624 42.7974 
2752 1 3 5.71715 22.5224 3.17875 1 0 -1 -0.0111731 -0.00414993 0.00427398 -5.5105 10.5198 25.2545 
4244 1 2 5.4881 18.1345 8.18887 0 0 0 -0.0110559 -0.00920215 -0.00591717 -5.65663 -7.0361 -17.2383 
9794 2 7 3.86185 24.5414 1.69995 0 0 0 -0.00558799 -0.00188452 0.000144913 9.97852 6.91914 5.99535 
4251 1 3 5.56981 18.7115 7.22427 0 0 0 -0.00785779 -0.0382671 0.0424399 7.43139 -21.9884 15.5734 
4252 1 3 5.1747 18.8813 8.89898 0 0 0 -0.0251555 -0.0050596 0.00130339 -12.9457 -1.70874 11.8792 
2737 1 1 6.8107 23.4553 1.67176 1 0 -1 -0.0063337 0.00167212 0.00992055 11.4758 -6.76752 -7.33763 
2744 1 3 5.07524 22.1696 1.60437 1 0 -1 -0.0119012 -0.0224234 -0.0135247 13.5609 4.35777 -1.20646 
2738 1 2 6.00743 22.3383 2.18408 1 0 -1 -0.00415785 0.00611812 -0.0056321 17.1307 -27.342 -32.49 
2743 1 3 6.64132 21.4059 2.19882 1 0 -1 0.00288475 0.00638325 0.00263289 -13.9472 20.4626 -6.94714 
7120 1 3 10.3154 24.9024 3.6591 0 0 0 -0.0264015 0.00329201 0.00548566 1.2052 -7.32605 14.5353 
1130 1 3 10.0677 17.3419 1.81589 -1 -1 1 -0.012891 -0.020662 -0.0158221 12.0255 -1.14193 -7.4429 
7113 1 3 9.15074 24.3333 5.41513 0 0 0 0.00901246 -0.0124961 0.0213234 -25.3676 -5.46756 -1.55986 
1132 1 3 9.13092 19.4862 2.43605 -1 -1 1 0.028015 -0.0215705 0.0109446 10.8661 19.9358 -1.84824 
843 1 3 16.675 20.1813 3.17372 0 0 -1 -0.00393156 -0.0089651 0.018596 -3.43988 2.64861 -13.0484 
4256 1 3 9.12573 18.7124 7.83764 0 0 0 0.0203417 -0.0145656 0.0123914 -6.16336 -8.97197 -0.505381 
2470 1 2 11.5918 24.7851 7.49431 0 0 -1 -0.00234614 0.00287376 0.00125907 -2.90539 -46.2207 1.77199 
1123 1 2 9.5633 17.4056 2.76384 -1 -1 1 0.000109538 -0.00053601 0.00313434 -4.28548 -4.72075 -16.3897 
2713 1 3 12.3793 21.7614 3.80546 0 0 0 -0.00978077 -0.00574 0.0124024 -23.3291 -4.02763 7.60019 
2714 1 3 11.7315 20.2755 3.21882 0 0 0 0.00276032 0.00414445 0.00688157 0.219314 -22.368 -9.16435 
2479 1 3 10.5235 24.7223 7.76083 0 0 -1 0.00849918 -0.0221665 -0.037522 3.35471 -0.920206 -17.8694 
1121 1 1 10.4823 17.5938 3.82044 -1 -1 1 0.0048718 0.00290555 -0.00218676 12.2515 12.0016 27.9692 
846 1 3 13.7388 18.9337 4.99017 0 0 -1 0.0145515 0.0208506 -0.0218875 -9.65428 -4.94895 -0.444077 
833 1 1 14.323 19.7486 1.79222 0 0 -1 -0.00352894 -0.00585418 -0.000300826 -7.4808 42.7357 -5.56571 
2718 1 3 9.87551 22.6121 7.64673 0 0 0 -0.0158094 -0.00227656 0.0170735 4.70968 -29.0247 -4.32541 
4926 1 3 14.8609 23.0811 6.77337 1 1 0 0.00466282 -0.0337786 -0.023687 17.7809 -17.3926 22.8983 
2717 1 3 9.22285 20.9774 7.09146 0 0 0 0.0126522 0.0179854 0.0156771 9.11189 6.5625 -0.886053 
837 1 1 15.1503 20.3164 4.58612 0 0 -1 0.00120404 -0.00103381 0.00262706 16.2606 -1.82673 -15.5588 
2706 1 2 10.9572 21.9859 1.40664 0 0 0 0.00040408 -0.00290021 0.00104334 -72.4224 8.56877 -12.0905 
2705 1 1 10.4424 21.8678 2.81128 0 0 0 -0.00282664 -0.00452935 0.00451839 52.2433 -3.86458 -15.0509 
2707 1 2 11.4276 21.1715 3.69581 0 0 0 -0.00201462 0.00811501 0.00511367 -24.0971 38.0127 -7.38509 
2708 1 2 10.6684 20.8282 5.01328 0 0 0 -0.00611085 0.00550187 0.000414043 78.4133 -0.967087 13.2092 
2715 1 3 11.3678 20.0726 5.53022 0 0 0 0.00787229 0.00948332 0.0174074 -33.3602 20.2458 -12.5563 
2716 1 3 9.70234 20.4615 4.82694 0 0 0 -0.0135571 -0.018705 0.000722103 -23.0259 -17.7426 -7.20061 
2709 1 1 10.5481 22.003 5.86037 0 0 0 0.00102081 0.000653936 0.00115307 1.39037 -4.64971 -36.9119 
2710 1 2 10.1165 21.6342 7.1262 0 0 0 -0.00850233 -0.00198375 0.00356546 -30.2001 36.8324 23.489 
2719 1 3 10.9642 21.1554 7.54017 0 0 0 -0.00545756 -0.0161856 -0.0125865 12.3346 -13.0785 22.2426 
838 1 2 14.5225 19.4733 5.49857 0 0 -1 -0.000656501 0.00215194 0.00031752 12.2374 -34.0959 28.1222 
836 1 2 15.8877 19.5619 3.59539 0 0 -1 0.00346931 -0.00353345 0.00259379 -0.466507 -15.8854 12.3841 
842 1 3 14.2369 18.161 3.0621 0 0 -1 -0.0389731 -0.00461968 0.0185615 0.864493 0.488686 7.08983 
845 1 3 15.2488 18.7445 5.98814 0 0 -1 -0.02288 -0.0197711 0.0131046 -16.8448 20.761 -14.8017 
835 1 2 14.989 18.8025 2.60297 0 0 -1 0.00124345 -0.00263344 -0.00184432 0.829746 -6.75673 -2.98961 
4918 1 2 15.1138 22.4043 7.65525 1 1 0 0.000217576 -0.00500276 0.0027501 7.65816 14.2518 -51.5316 
4927 1 3 14.4995 22.6602 8.43563 1 1 0 0.000405559 -0.0338461 -0.0030282 -19.6272 18.8594 37.7996 
4925 1 3 14.8052 21.4138 7.42016 1 1 0 -0.00414515 -0.0248902 0.00117425 4.89691 -12.8647 -1.25025 
807 1 3 16.0613 23.9705 3.68918 1 2 0 -0.0111347 -0.00955674 0.0139936 6.38362 -25.3634 9.39376 
816 1 3 15.6316 22.214 3.44203 1 2 0 0.0110196 -0.00759561 0.0118533 1.29898 8.17124 5.72609 
802 1 2 16.4583 22.9169 3.59661 1 2 0 -0.00629212 -0.00482165 0.000232603 -27.7738 33.8236 -15.7386 
847 1 3 14.1192 20.1107 6.24622 0 0 -1 0.00441048 -0.013474 -0.00523425 -16.1205 1.01219 10.125 
2476 1 3 13.7115 24.7877 5.69133 0 0 -1 0.00638107 -0.00733588 0.0106759 8.73781 -16.7815 -4.46148 
841 1 3 15.6515 18.1675 2.03598 0 0 -1 -0.0258773 0.0198464 -0.0144073 0.77277 -3.04677 -14.2742 
2478 1 3 12.0432 23.7723 7.36867 0 0 -1 -0.00750539 -0.00987607 -0.0232382 -12.2812 10.7631 3.06719 
2712 1 3 11.9047 22.4916 1.23545 0 0 0 0.0104155 0.00320708 0.00312339 6.15968 1.76255 15.1582 
9680 2 7 11.6417 17.4789 8.41707 0 0 0 -0.00289141 -0.000728591 0.0034818 -2.1719 -1.32388 -2.95187 
2472 1 3 13.1312 24.4088 3.56194 0 0 -1 -0.00545574 0.00466368 0.00282123 1.88023 8.51615 -8.66202 
844 1 3 16.3822 18.737 4.0895 0 0 -1 0.00971496 -0.040634 -0.00757751 10.3299 1.18042 10.4557 
809 1 3 15.9346 24.2559 1.32187 1 2 0 0.023441 -0.0123369 0.0124922 -23.6519 25.5362 12.5705 
7112 1 3 9.20313 24.8995 2.30104 0 0 0 0.00205548 -0.00983614 -0.00108311 -0.455653 2.10819 7.95687 
4917 1 1 16.5136 22.4268 8.05818 1 1 0 -0.0034463 0.000374943 -0.00489411 3.99717 -8.3562 4.78536 
803 1 2 16.3941 23.3246 1.22784 1 2 0 0.00666833 -0.00351151 0.00542045 30.276 -28.4826 14.2202 
1626 1 3 1.69635 4.43029 9.75456 1 0 -1 -0.0342958 -0.0238168 -0.000570587 6.92504 2.5427 -26.2688 
7564 1 3 6.89893 1.18192 11.7225 0 1 -1 -0.00459784 -0.0172852 -0.025727 -14.1008 -15.274 0.72686 
7567 1 3 8.36664 2.42727 13.345 0 1 -1 -0.0168863 0.00284476 -0.0291869 -6.31778 -6.60317 -4.41149 
6527 1 3 7.51454 5.15351 10.2079 0 0 0 0.0321115 -0.000841772 -0.0120568 11.7331 -4.36006 5.1348 
6518 1 2 7.84869 4.64598 9.29716 0 0 0 -0.00151995 -0.0036694 0.00142881 -27.1048 20.0013 14.0682 
6525 1 3 8.62649 3.93492 9.45731 0 0 0 -0.01558 -0.00522217 0.00919314 8.11193 -16.4278 8.41282 
7553 1 1 5.24759 2.63977 9.25831 0 1 -1 0.00131582 -0.00497629 0.00130237 -15.0329 28.6063 -35.8743 
7555 1 2 5.21845 2.11672 10.5685 0 1 -1 0.00569701 0.000826208 -0.00598824 -9.85205 -45.1981 43.9939 
7562 1 3 4.48858 2.58833 11.2952 0 1 -1 -0.0207688 -0.01931 -0.00861939 15.1591 -0.0814144 -26.3497 
7469 1 3 2.16113 6.85604 15.7914 0 1 0 0.00659189 0.0236795 -0.0105479 11.4391 -0.138256 -19.1747 
7565 1 3 8.32144 4.13854 13.2881 0 1 -1 0.000266905 0.00593576 0.00342431 -11.1211 11.0596 -5.43305 
7556 1 2 6.6422 2.07348 11.1708 0 1 -1 0.00648952 0.0075643 -0.00441285 15.5005 15.2411 13.2732 