
# Force Fields
neighbor			2.0 bin
neigh_modify		delay 0 every 1 check yes
special_bonds		lj/coul 0.0 0.0 0.5
bond_style		    harmonic
angle_style		    harmonic
dihedral_style      fourier
improper_style      cvff
pair_style		    lj/cut/coul/long 12.0
kspace_style        pppm 1.0e-4

# Atom Definitions
read_restart		../min/${rname}
read_restart		../min/restart.min
  restoring atom style full from restart
  orthogonal box = (-0.25 -0.25 -0.25) to (50.25 50.25 50.25)
  2 by 2 by 7 MPI processor grid
  restoring pair style lj/cut/coul/long from restart
  restoring bond style harmonic from restart
  restoring angle style harmonic from restart
  restoring dihedral style fourier from restart
  restoring improper style cvff from restart
  10479 atoms
  9789 bonds
  17016 angles
  13995 dihedrals
  4 = max # of 1-2 neighbors
  6 = max # of 1-3 neighbors
  12 = max # of 1-4 neighbors
  14 = max # of special neighbors
  special bonds CPU = 0.00163102 secs
  read_restart CPU = 0.00985718 secs

# Settings
velocity            all create 298.15 150000
fix 			    1 all npt temp 298.15 298.15 100.0 iso 1.0 1.0 1000.0
thermo			    1000
thermo_style 		custom step cpu temp press vol etotal ke pe ebond eangle edihed eimp epair evdwl ecoul elong fmax fnorm lx density
timestep 			1.0
reset_timestep		0
dump 			    1 all custom 50000 dump.nvt.*.dump id mol type mass q x y z xu yu zu ix iy iz vx vy vz fx fy fz
restart             100 restart.${simname}_r restart.${simname}_r
restart             100 restart.npt_r restart.${simname}_r
restart             100 restart.npt_r restart.npt_r
run 				2000000
PPPM initialization ...
  using 12-bit tables for long-range coulomb (src/kspace.cpp:332)
  G vector (1/distance) = 0.192255
  grid = 15 15 15
  stencil order = 5
  estimated absolute RMS force accuracy = 0.0227091
  estimated relative force accuracy = 6.83879e-05
  using double precision MKL FFT
  3d grid and FFT values/proc = 1352 192
Neighbor list info ...
  update every 1 steps, delay 0 steps, check yes
  max neighbors/atom: 2000, page size: 100000
  master list distance cutoff = 14
  ghost atom cutoff = 14
  binsize = 7, bins = 8 8 8
  1 neighbor lists, perpetual/occasional/extra = 1 0 0
  (1) pair lj/cut/coul/long, perpetual
      attributes: half, newton on
      pair build: half/bin/newton
      stencil: half/bin/3d/newton
      bin: standard
Per MPI rank memory allocation (min/avg/max) = 14.08 | 14.22 | 14.54 Mbytes
Step CPU Temp Press Volume TotEng KinEng PotEng E_bond E_angle E_dihed E_impro E_pair E_vdwl E_coul E_long Fmax Fnorm Lx Density 
       0            0       298.15    1987.7057    128787.62   -4118.3758    9312.0974   -13430.473    137.05507    558.47776    394.49625            0   -14520.502   -3568.0998    11301.743   -22254.146    11.749627    52.953772         50.5   0.93546946 
    1000    7.2637439    302.13233    1149.0932    135907.35     5398.267    9436.4773   -4038.2103    3333.7535     4510.031     1131.421            0   -13013.416   -2222.0316    11510.874   -22302.258    102.72603    3396.1261    51.413951   0.88646341 
    2000    14.203763    297.26748    37.516037    133606.88    4540.9174    9284.5336   -4743.6162    3132.4779    4349.3165    1095.3779            0   -13320.789   -2164.0662    11220.472   -22377.195    128.68186    3270.4228    51.122208   0.90172672 
    3000    21.312804    298.73232    378.64982    131263.21    4504.9111     9330.285   -4825.3739    3095.4507    4451.4577    1142.7629            0   -13515.045   -2232.7242    11141.957   -22424.278    128.73972    3271.5971    50.821522   0.91782681 
    4000    28.025147    298.74426    119.03492    128358.24    4402.2671    9330.6578   -4928.3907    3072.9436    4504.9757    1102.6148            0   -13608.925   -2301.7607    11113.389   -22420.553    113.80224    3262.5644    50.443814   0.93859881 
    5000    34.765352    300.48993   -37.167482    126077.13    4167.2191    9385.1802   -5217.9612    3055.9122    4466.8488    1023.4829            0   -13764.205   -2347.3061    11015.825   -22432.724    123.03002    3261.1541    50.143207   0.95558084 
    6000    41.447749    300.22412    241.93144    124757.26    4239.0915    9376.8782   -5137.7867    3066.4854    4528.4454    1079.6307            0   -13812.348    -2421.374    11048.234   -22439.208    106.94702    3271.9493    49.967613   0.96569043 
    7000    48.354854    297.76528    162.25264    123021.43    3957.0927    9300.0814   -5342.9887    3037.6552     4506.316    1097.9713            0   -13984.931    -2455.522    10911.633   -22441.042    114.92033    3254.7319    49.734786   0.97931631 
    8000    55.231187    299.02713   -250.08791    122724.89    4073.7422    9339.4928   -5265.7506    3081.7358     4559.423    1056.3272            0   -13963.237    -2484.975    10972.374   -22450.636    107.68733    3264.0488    49.694793   0.98168256 
    9000    62.140579    294.61374    398.87952    122706.73    3862.6654    9201.6497   -5338.9843    3060.2724    4596.2704    1055.0291            0   -14050.556   -2560.5237    10970.999   -22461.032    112.04827    3289.0518    49.692341   0.98182792 
   10000    68.885138    297.52721     757.3978    121177.21    3840.5244     9292.646   -5452.1216     3011.177    4585.6525    1043.4919            0   -14092.443    -2583.258    10955.706   -22464.891    98.856994    3261.6653    49.485008   0.99422073 
   11000     75.77357    301.23873   -255.12844    120831.03    3933.5558    9408.5675   -5475.0117    3102.6446    4529.1207    1049.2701            0   -14156.047   -2547.4442    10853.396   -22461.999    109.40845    3286.0345     49.43784   0.99706914 
   12000    82.711864    299.68266   -114.81073    120262.02     3838.401    9359.9668   -5521.5658    3067.5845     4603.156    1067.7473            0   -14260.054   -2577.5928    10779.694   -22462.155    110.88642    3269.9733    49.360115    1.0017867 
   13000    89.747896    300.13019     102.9781    119543.52    3979.3933    9373.9445   -5394.5512    3113.4642    4685.5352    1090.9936            0   -14284.544   -2659.5993    10827.516   -22452.461    115.31049    3285.5984    49.261619    1.0078078 
   14000    96.649718    295.32065    225.51092    119824.19     3833.288    9223.7285   -5390.4405    3107.5628    4641.6824    1075.7006            0   -14215.386   -2561.7194    10818.365   -22472.032    100.33404    3297.6832    49.300141    1.0054472 
   15000    103.48001    297.69465    356.35657    120639.56    3822.3916    9297.8754   -5475.4838    3105.9239    4591.5308    1059.0281            0   -14231.967   -2595.3564     10822.49     -22459.1    108.12588    3300.7742    49.411713   0.99865163 
   16000    110.41454    296.73529    772.71725    118771.56    3902.4484    9267.9118   -5365.4634    3127.3776    4717.3963    1046.7363            0   -14256.974    -2588.111    10800.875   -22469.738    101.28878    3298.4516    49.155354     1.014358 
   17000    117.36612    293.21695    -261.9289    120044.32    3655.0126    9158.0237   -5503.0112    3048.5229    4681.3304    1045.1099            0   -14277.974   -2576.8393    10768.333   -22469.468    128.55363    3285.9311    49.330313    1.0036034 
   18000    124.24898    298.96066   -77.287132    120442.33    3857.2291    9337.4167   -5480.1876    3030.8091    4685.2138    1044.9655            0   -14241.176   -2553.4315    10781.002   -22468.746    100.38061    3299.0171    49.384772    1.0002869 
   19000    130.99686    293.03803    18.508242    118982.94    3453.9581    9152.4355   -5698.4774    3066.5363    4587.2174    1047.2776            0   -14399.509   -2612.9518    10685.507   -22472.064    111.02646    3258.4305    49.184497     1.012556 
   20000    138.23422     297.1902   -668.99606     119498.9    3744.7976    9282.1201   -5537.3224    3116.1229    4645.6646    1029.5344            0   -14328.644   -2631.5143    10781.467   -22478.597    99.409554    3288.6317     49.25549     1.008184 
   21000     145.1711    300.05167    -25.69876    119043.54    3812.9405    9371.4921   -5558.5516    3128.2161    4568.1537    1056.3459            0   -14311.267   -2649.8992    10815.403   -22476.771    98.793486    3310.4259    49.192846    1.0120405 
   22000    152.04911    298.35257    -215.0688    119523.71    3734.4304    9318.4243   -5583.9939    3087.1094    4576.6306    1040.8608            0   -14288.595   -2565.9829    10756.281   -22478.893    103.55554    3292.4367    49.258897    1.0079749 
   23000    158.86339    298.25008   -528.14242    118305.07    3792.0003    9315.2233    -5523.223    3137.7053    4684.4699    994.59588            0   -14339.994   -2751.3132    10870.318   -22458.999     149.5576    3301.0408    49.090914    1.0183578 
   24000    165.85572    304.28236    624.33028    119440.88    3894.0689    9503.6289     -5609.56    3104.6505    4611.6025    1005.1854            0   -14330.998   -2612.3543     10765.16   -22483.804    95.834968    3307.2612    49.247517    1.0086738 
   25000    172.85319    295.32784   -694.03805    119367.39    3768.7931    9223.9531     -5455.16    3183.9074    4729.9055    1021.0645            0   -14390.037   -2694.6099     10783.36   -22478.787    124.75345    3335.3421    49.237413    1.0092949 
   26000    179.61734    295.96184   -325.73257    117697.99    3574.8375    9243.7546   -5668.9172    3132.4979    4648.1962     1014.516            0   -14464.127   -2682.0442     10704.58   -22486.663    113.50236    3307.7705      49.0068    1.0236104 
   27000    186.64448     297.1478    855.16802     116929.7    3638.5238    9280.7958    -5642.272    3048.9767    4750.7123    1034.0856            0   -14476.047   -2687.0489    10679.474   -22468.472    106.97757    3279.1845    48.899935     1.030336 
   28000    193.83746    295.64961    1105.5962    116549.87    3503.3456     9234.003   -5730.6574    3067.9578    4663.6139     1082.884            0   -14545.113   -2703.8599    10652.263   -22493.516    107.63465    3284.8712    48.846929    1.0336939 
   29000     201.0539    303.64532    120.65424    116822.64    3892.3987    9483.7322   -5591.3335    3136.8249    4751.7446    1020.6434            0   -14500.546   -2609.1763    10601.598   -22492.968    120.11146    3305.8233    48.885006    1.0312803 
   30000    208.03357    298.22086    205.76855    117685.94     3643.622    9314.3106   -5670.6886    3076.1826    4695.4889    1034.2463            0   -14476.606   -2740.4209    10751.708   -22487.894    116.75169    3269.1416    49.005127    1.0237153 
   31000      215.159    301.88151   -118.34783    117333.46     3678.217    9428.6434   -5750.4264    3118.3671    4638.6045    1008.0519            0    -14515.45     -2710.85    10678.841   -22483.441    109.96877    3295.9147    48.956153    1.0267906 
   32000    222.29881    299.94307   -227.25873     117015.6    3769.8474    9368.1003   -5598.2529    3119.3334    4731.1209    1004.3027            0    -14453.01   -2644.7169    10675.072   -22483.365    113.50959    3301.0114    48.911906    1.0295797 
   33000    229.23034    295.66718    67.849285    117145.93    3480.6664    9234.5515   -5753.8851    3101.2333    4648.9118    1013.6283            0   -14517.659   -2704.9841    10677.923   -22490.597    125.63204    3300.7296    48.930059    1.0284343 
   34000    236.09089    300.74063    327.61002    118308.49    3791.3618    9393.0103   -5601.6485    3087.4414    4728.0469    1038.8439            0   -14455.981   -2672.1076    10696.274   -22480.147    125.57178    3321.6431    49.091387    1.0183284 
   35000    243.06731    292.45257    177.96285    116701.04     3289.144    9134.1499   -5845.0059    3049.1326    4581.8687    1017.0882            0   -14493.095   -2716.1168    10709.215   -22486.194    100.38783    3277.4348    48.868039    1.0323549 
   36000    249.92246    295.31702    647.69804    118137.25    3636.6922    9223.6152    -5586.923    3186.6458    4621.6125    999.44736            0   -14394.629   -2606.9809    10689.742    -22477.39    106.51212    3323.6878    49.067691    1.0198044 
   37000    256.83261    297.79697    111.10204    117765.99    3537.5842    9301.0713   -5763.4871    3078.6672    4601.4209    1042.6366            0   -14486.212   -2681.9905    10689.449    -22493.67     109.1366    3299.5159    49.016237    1.0230194 
   38000    264.08515    296.90147    358.89735     117610.7    3556.7975     9273.102   -5716.3045    3133.9381    4643.0554    1040.7478            0   -14534.046   -2693.3381    10643.765   -22484.472    113.32077    3304.6239    48.994682    1.0243701 
   39000    271.20518    294.83437    239.72895    118319.65    3537.4355    9208.5406   -5671.1051    3142.3112    4641.4232    1055.6261            0   -14510.466   -2628.3132    10605.855   -22488.007    118.22176    3327.7738     49.09293    1.0182323 
   40000    278.08966    299.77212   -86.757074    119592.93    3743.1558    9362.7609   -5619.6051    3129.8589    4639.8354    1035.7644            0   -14425.064   -2619.7696    10684.619   -22489.913    116.31999    3308.3779    49.268405    1.0073914 
   41000    285.00875    297.64466   -134.93211    118490.36    3604.4251    9296.3141    -5691.889    3102.2216      4682.94    1067.6786            0   -14544.729    -2667.002    10614.131   -22491.858    101.03973     3309.824     49.11653    1.0167653 
   42000    291.95297     301.2497   -56.715568    117400.79     3488.999      9408.91   -5919.9111    3102.7782    4577.9889    990.56872            0   -14591.247   -2722.0502    10634.067   -22503.264    114.18853    3285.1091    48.965517    1.0262017 
   43000    298.86894    295.82117   -119.73584    118992.91    3639.9888    9239.3612   -5599.3724     3191.369    4672.5361    973.89285            0    -14437.17    -2627.651    10675.729   -22485.249    109.78284     3353.649    49.185871    1.0124711 
   44000    305.83631    299.95092   -136.62461       117705    3506.9697    9368.3453   -5861.3756    3054.3318    4597.4111    1058.0961            0   -14571.215   -2711.2143    10623.424   -22483.425    102.87894    3261.3656    49.007773    1.0235495 
   45000     312.9988    300.08968    267.88101    117280.08    3650.3325    9372.6793   -5722.3468    3148.9751    4591.3069    1051.2556            0   -14513.884   -2696.0687    10670.616   -22488.432    97.453272    3304.9989    48.948728    1.0272579 
   46000    320.20528    292.42143    54.333014    116858.44    3341.8479    9133.1773   -5791.3293    3104.0082     4628.019    1021.4382            0   -14544.795   -2703.2562    10649.593   -22491.131    95.155907    3294.5964    48.889999    1.0309644 
   47000    327.23376    294.70324    275.18851    118392.34    3501.2138     9204.445   -5703.2313    3148.6815    4622.0344    1034.2441            0   -14508.191   -2677.5053    10660.724    -22491.41    103.83989    3322.9735    49.102982    1.0176072 
   48000    334.26208    299.36183       57.869     117155.5    3652.4792    9349.9463   -5697.4671    3190.9264    4611.5239    1069.7403            0   -14569.658   -2777.0647    10703.988   -22496.581    112.97211    3339.0507     48.93139    1.0283503 
   49000    341.07146    298.75719    345.02768    117865.89    3685.6233    9331.0618   -5645.4384    3163.1555    4617.3658    1015.6324            0   -14441.592   -2669.4358    10713.446   -22485.602    103.07285    3306.8778    49.030093    1.0221523 
   50000    348.40106    298.18392   -89.240832    117371.97    3463.7613    9313.1569   -5849.3956    3084.3548    4541.1873    1063.5077            0   -14538.445   -2774.1919    10724.869   -22489.123    102.40884    3287.0208     48.96151    1.0264536 
   51000    355.57893    294.50796     6.621751     117210.2    3377.2425    9198.3457   -5821.1032     3048.812    4606.1495    1023.6777            0   -14499.742   -2660.5814    10641.847   -22481.008    109.67159    3273.2226    48.939005    1.0278704 
   52000    362.86081    301.35061    -145.9786     116578.5    3575.2217    9412.0617     -5836.84    3085.8233    4584.9445    1016.2401            0   -14523.848   -2740.4053     10710.75   -22494.193    100.97468    3296.1558    48.850928    1.0334401 
   53000    369.84759    298.97778   -301.94934    117844.94    3470.0232    9337.9514   -5867.9281      3156.35    4533.3319    967.79851            0   -14525.409   -2705.3976    10671.309    -22491.32    119.43592    3302.7943    49.027188     1.022334 
   54000    377.13402     299.6372    282.35993    117846.44    3648.1161     9358.547   -5710.4309    3167.1312    4633.2582    1004.5805            0   -14515.401   -2708.6764    10680.427   -22487.151    108.29398    3330.6841    49.027396     1.022321 
   55000     384.4116    296.44547    64.426145    118989.05    3576.2556    9258.8599   -5682.6043    3120.7659    4613.7619    1000.8636            0   -14417.996   -2644.2906    10717.292   -22490.997    114.25339    3305.6786    49.185339     1.012504 
   56000    391.44772    296.95248    161.67857    119380.82    3670.0982    9274.6953   -5604.5971    3154.5641    4644.4461    1048.9412            0   -14452.548   -2644.1397    10678.064   -22486.473    120.95198    3317.5282     49.23926    1.0091813 
   57000     398.5342    301.30239   -1321.5274    117665.18    3646.4574    9410.5556   -5764.0983    3177.9401    4605.3149    1040.7891            0   -14588.142   -2735.8295    10635.854   -22488.167    101.12838    3336.9969    49.002246    1.0238958 
   58000    405.75313    295.07918    -1019.796    118115.81     3576.643    9216.1868   -5639.5438    3168.7881    4681.8862    1046.8992            0   -14537.117    -2666.822     10618.37   -22488.666    108.27575    3327.2316    49.064723    1.0199895 
   59000    412.89819    298.45849    43.432619    117596.45    3593.2206    9321.7324   -5728.5118    3117.7299    4684.3189    1056.6396            0     -14587.2   -2701.5674    10612.792   -22498.425    116.77951    3302.5179    48.992703    1.0244943 
   60000    419.86372    301.67712   -289.06862    118449.43    3736.3489    9422.2598   -5685.9109    3121.2291    4668.9687    1044.5166            0   -14520.625   -2677.4205    10650.018   -22493.223    111.82076    3311.2461    49.110874    1.0171166 
   61000    426.70821    296.45563    226.82836    118018.29    3530.7262    9259.1774   -5728.4512    3174.5314    4596.4107    1048.7518            0   -14548.145   -2637.8242    10570.556   -22480.877    108.19923    3343.0321    49.051215    1.0208324 
   62000    433.65022    302.65038   -145.94964    117682.96    3694.4847    9452.6575   -5758.1727    3209.9341    4585.9195    1025.3741            0     -14579.4   -2682.5141    10600.315   -22497.201    100.58378    3312.8898    49.004715    1.0237411 
   63000    440.79932    299.81184    23.809802     118259.5     3758.527    9364.0016   -5605.4747    3187.5169    4730.0033    1036.7893            0   -14559.784   -2716.7866    10653.698   -22496.696    114.01494    3337.5262     49.08461    1.0187502 
   64000    447.89381    297.15814    970.95754    117173.38    3472.6804    9281.1187   -5808.4383    3102.7673    4576.0467    1057.2614            0   -14544.514   -2713.9524    10657.051   -22487.612    117.32758    3299.2201    48.933879    1.0281934 
   65000    455.12552    298.83035    672.71077    117176.19    3613.6625    9333.3466   -5719.6841    3180.4038    4568.6079    988.31963            0   -14457.016   -2699.4567    10726.143   -22483.702    144.24004    3329.8658    48.934272    1.0281686 
   66000    462.31385    296.39683   -828.68187    118461.02    3439.3055    9257.3406   -5818.0352    3092.2061     4629.959    971.68924            0   -14511.889   -2744.1461    10711.201   -22478.944    105.74609    3297.2974    49.112475    1.0170172 
   67000    469.38042    293.28347    -113.4826    117322.94    3398.0757    9160.1014   -5762.0256    3133.1049    4659.1488    998.68113            0    -14552.96   -2753.1829    10685.081   -22484.858    101.80776    3329.8486     48.95469    1.0268827 
   68000    476.43089    301.58886    1012.3023    116669.57    3669.6029     9419.503      -5749.9    3141.3379    4656.7819    1025.5236            0   -14573.543   -2752.7252    10664.397   -22485.215    107.85943    3322.7345    48.863645    1.0326334 
   69000    483.69706    295.29077    908.78106    117088.86    3482.2531    9222.7952   -5740.5421    3185.2345    4583.4498    1004.5305            0   -14513.757   -2725.7549    10699.467   -22487.469    108.66805     3335.439    48.922112    1.0289355 
   70000    490.63179    302.97282   -111.69658       118343     3738.113     9462.728   -5724.6151    3167.4661    4621.9026    998.68559            0   -14512.669   -2688.3892    10663.984   -22488.264    137.17151    3326.7389     49.09616    1.0180314 
   71000    497.89839    299.83352   -108.21659    117723.97    3563.7269    9364.6785   -5800.9516    3140.6709    4640.7087    993.01711            0   -14575.348   -2729.5762    10643.302   -22489.074    118.48898     3297.223    49.010406    1.0233846 
   72000     504.8428    299.52477     783.4819    117903.53    3627.1974    9355.0355   -5727.8381    3161.7852    4570.5041    1023.1082            0   -14483.236   -2641.2897    10644.884    -22486.83    123.13695    3324.1626    49.035311     1.021826 
   73000    512.18223    301.76197     159.3962       117418    3750.3075    9424.9097   -5674.6022    3147.3278    4717.2582    993.76126            0   -14532.949    -2754.151    10701.859   -22480.658    113.56902    3332.0678    48.967909    1.0260513 
   74000    519.42009    298.62382   -750.34103    117206.67    3487.5157    9326.8962   -5839.3805     3148.572    4542.1938    985.82418            0   -14515.971    -2712.872    10688.271    -22491.37    122.18752    3299.7421    48.938514    1.0279013 
   75000    526.49399    301.30997    256.72222    117608.17    3699.2782    9410.7924   -5711.5142     3172.889    4594.5812    982.68948            0   -14461.674   -2686.3492    10711.929   -22487.254    105.74638    3356.8183    48.994331    1.0243922 
   76000    533.54334      296.815    300.15819    117663.61    3547.1338    9270.4015   -5723.2677    3197.1014    4609.6827    1011.1375            0   -14541.189   -2669.0612    10614.489   -22486.617    106.05188    3337.3932    49.002028    1.0239095 
   77000    540.57866    299.83024   -222.63981    118579.48    3521.4271    9364.5763   -5843.1492     3133.203     4531.099    961.34076            0   -14468.792   -2663.6848    10680.221   -22485.328     118.7041    3318.3105    49.128841    1.0160011 
   78000    547.63561    298.74397    983.32417    118401.52    3775.8065    9330.6489   -5554.8424    3167.3415    4704.0764    985.45883            0   -14411.719   -2666.7735    10731.403   -22476.349    105.72223    3358.9587    49.104251    1.0175282 
   79000    554.61685    295.00927    676.35794    118354.96    3527.7741    9214.0033   -5686.2292    3151.8818    4575.2529    1006.3912            0   -14419.755   -2641.3822    10718.117    -22496.49    112.56539    3323.5039    49.097814    1.0179285 
   80000    561.59886    298.44423    147.51337    117338.45    3607.0807     9321.287   -5714.2063    3163.7294    4604.5157    1026.9612            0   -14509.413   -2703.8176    10683.799   -22489.394    131.53317    3326.4352    48.956848    1.0267469 
   81000    568.69248    293.75663    668.76854    118270.52    3477.4984    9174.8796   -5697.3813    3104.4043    4648.7479    1003.0757            0   -14453.609   -2668.9347    10693.038   -22477.713    113.91872    3313.0866    49.086135    1.0186553 
   82000    575.80365    295.69179   -3.6422276    118023.58    3594.2978    9235.3202   -5641.0224    3192.4439    4601.0579    1026.8096            0   -14461.334   -2710.4761    10729.296   -22480.154    105.59799    3331.9242    49.051949    1.0207866 
   83000    583.05646    296.34472   -161.26821    117384.63    3350.6589    9255.7132   -5905.0543    3106.4999    4584.8553    996.54295            0   -14592.953   -2748.1002    10639.718    -22484.57    124.43171     3298.952     48.96327    1.0263429 
   84000    590.25428     297.9962   -82.779367    116774.92    3608.6541    9307.2939   -5698.6398    3182.9045    4720.6048    1010.3974            0   -14612.546   -2770.5293    10649.258   -22491.275    101.13009    3348.3063    48.878349    1.0317017 
   85000    597.41386    298.17002    -339.2057    117167.54    3668.8491    9312.7227   -5643.8735    3171.8777    4698.7801    1025.9782            0    -14540.51   -2739.6182    10693.412   -22494.304    99.211074    3365.5047    48.933068    1.0282446 
   86000    604.43755    296.63982    105.70264    117965.29    3444.7898    9264.9301   -5820.1404     3129.861     4601.324    978.95313            0   -14530.279   -2672.7164     10632.44   -22490.003    115.00543    3311.2128    49.043872     1.021291 
   87000    611.49154    299.30928   -520.08208    117365.07    3698.3265    9348.3052   -5649.9788    3214.9348    4730.1279    1005.0857            0   -14600.127   -2767.4963    10659.445   -22492.076    130.88322     3322.272     48.96055     1.026514 
   88000    619.03615    296.29944    48.769062    116745.47    3363.1158    9254.2991   -5891.1832    3095.5027    4602.9317    1013.2158            0   -14602.833   -2768.6677     10652.83   -22486.996    106.93003    3287.4747     48.87424     1.031962 
   89000    626.05601    299.67534    327.92151    117557.92    3551.3137    9359.7382   -5808.4245    3079.5214     4602.929    982.94676            0   -14473.822   -2696.1231    10708.448   -22486.147    136.51529    3301.4516    48.987353      1.02483 
   90000    633.52811    298.20075    241.69349    117515.73    3476.4744    9313.6826   -5837.2081    3118.2043    4593.5705    953.38884            0   -14502.372   -2674.7249    10668.097   -22495.743    145.47413      3309.45    48.981491     1.025198 
   91000    640.75184    297.99721   -334.04191    117365.72    3594.0449    9307.3254   -5713.2804    3078.1953    4720.8272    1045.1921            0   -14557.495   -2776.6097    10708.525    -22489.41    108.17849    3298.3724    48.960641    1.0265083 
   92000    648.12768     299.5879   -69.999217    117330.53    3363.8616    9357.0074   -5993.1458    3007.2856    4503.8326    994.90318            0   -14499.167   -2712.2309    10704.705   -22491.642    112.58019     3266.101    48.955746    1.0268162 
   93000    655.24411    299.34096   -568.47663     117727.7    3607.9917    9349.2945   -5741.3028    3142.9978    4573.4921    1049.4519            0   -14507.245   -2677.2508    10662.011   -22492.004    112.48832    3303.9712    49.010923    1.0233521 
   94000    662.26212     299.3289    544.43342    117928.07     3679.742     9348.918    -5669.176    3158.7922     4570.804    1061.0465            0   -14459.819   -2661.1293    10691.475   -22490.164    120.49336    3336.3861    49.038713    1.0216133 
   95000    669.34599    298.13928   -58.754113    116625.18    3612.4667    9311.7625   -5699.2958    3194.2382    4676.7023    1019.4058            0   -14589.642   -2788.8914    10691.654   -22492.405    107.18931    3321.2806    48.857447    1.0330264 
   96000    676.77054    298.30186   -378.97392    117940.02    3444.4145    9316.8403   -5872.4258    3130.7919    4553.7773    1036.2892            0   -14593.284   -2718.3951     10622.63   -22497.519    104.96785    3284.5641     49.04037    1.0215098 
   97000    683.94788    294.71744    229.19014    116330.22    3316.0781    9204.8886   -5888.8105    3059.6764     4570.285    1047.3956            0   -14566.167   -2705.9942    10633.876   -22494.049    106.48368    3299.0268    48.816224    1.0356457 
   98000     691.2035    299.98857    -306.2239    116906.87    3489.7788    9369.5215   -5879.7426    3070.8072    4635.4937    1053.1343            0   -14639.178   -2825.4907    10684.787   -22498.474    120.07341    3300.3159    48.896751    1.0305373 
   99000    698.47799      298.402     362.1333    117044.24    3590.4792     9319.968   -5729.4888    3148.0697    4627.5994    1007.5433            0   -14512.701   -2733.9412    10714.022   -22492.782    96.915942    3316.2496    48.915897    1.0293278 
  100000    705.69465    297.04005   -4.6645188    117411.94     3419.146    9277.4305   -5858.2845    3120.5449    4599.1806    961.46227            0   -14539.472   -2730.0235    10680.221    -22489.67    116.29879    3285.1643    48.967067    1.0261042 
  101000    712.74534    303.22602    1330.0553    117555.41    3691.7445    9470.6365    -5778.892    3108.4398    4656.2127     1002.763            0   -14546.308   -2737.0132    10690.819   -22500.114    109.56159    3316.0816    48.987003     1.024852 
  102000    719.94193    298.29733    2.3757808    117866.98    3502.6896    9316.6991   -5814.0095    3081.5508    4629.2447    1014.7019            0   -14539.507   -2692.0615    10637.626   -22485.072     115.8492     3289.017    49.030244    1.0221428 
  103000    726.90204    293.99768    106.51534    117857.06     3376.893    9182.4083   -5805.5153    3105.8973      4621.24     1011.614            0   -14544.267   -2721.4291    10661.084   -22483.922    103.38747    3303.9768    49.028869    1.0222288 
  104000    734.00435    300.98145     564.6858    118256.26    3671.8459     9400.532   -5728.6861    3115.0322     4666.085    1012.4968            0     -14522.3   -2651.0792    10626.568   -22497.789    113.36739    3324.8469    49.084161    1.0187781 
  105000    741.15898    297.29144   -78.840325    118472.91    3405.3415    9285.2821   -5879.9406    3117.4572    4574.7397    1010.1689            0   -14582.306   -2712.5567     10621.67    -22491.42    107.06574    3293.4747    49.114118    1.0169151 
  106000    748.03442    299.45901     862.5923    117717.19    3635.6617    9352.9816   -5717.3199    3152.2141    4614.9843    1025.2888            0   -14509.807   -2672.7606    10661.693   -22498.739    132.71297    3345.3645    49.009465    1.0234435 
  107000     755.0924    295.54292   -290.55852    117659.62    3444.5912    9230.6707   -5786.0795    3163.0726    4619.2655     1008.562            0    -14576.98   -2738.9165    10662.797    -22500.86    106.38573    3317.3506    49.001475    1.0239442 
  108000    762.22758    295.52952   -282.49492    117366.15    3402.9721    9230.2523   -5827.2802    3121.3337    4622.4665    1025.8567            0   -14596.937   -2742.2787    10653.015   -22507.673    104.90406    3304.5693      48.9607    1.0265046 
  109000     769.3192    297.93755     645.0325    117290.91    3516.9598     9305.462   -5788.5021    3182.5648    4622.0293    1033.7498            0   -14626.846   -2681.2334    10564.234   -22509.847    111.89463     3329.494    48.950236     1.027163 
  110000    776.36153    298.62916   -69.184335    118259.01    3619.1346    9327.0629   -5707.9284    3160.7031    4678.7126    1006.8431            0   -14554.187   -2701.1038    10642.622   -22495.706    102.39213    3320.3477    49.084543    1.0187544 
  111000    783.51247    298.70192   -408.50117    117245.37     3683.463    9329.3356   -5645.8726    3184.0408    4687.7243    1021.1365            0   -14538.774    -2690.858    10653.459   -22501.375    131.62545    3364.6074      48.9439     1.027562 
  112000    790.63309    298.27393    377.56181     116572.3     3503.994    9315.9681   -5811.9741    3183.8825      4626.58    1006.3892            0   -14628.826   -2720.3384    10589.869   -22498.356    129.09229    3347.2041    48.850062     1.033495 
  113000     797.9589    299.81822    211.72395    116882.77    3579.6093    9364.2008   -5784.5915    3165.4403    4684.2428    978.72023            0   -14612.995   -2766.6898    10646.843   -22493.148    106.23223    3334.8383    48.893391    1.0307498 
  114000    805.23529    295.29701    339.14035    116129.64    3441.5197    9222.9901   -5781.4704    3156.5707    4689.2815    1003.8351            0   -14631.158   -2754.6241    10614.337    -22490.87    109.85988    3326.2804    48.788151    1.0374344 
  115000    812.39686     293.7829   -248.38287    116721.36    3305.9677    9175.6999   -5869.7322    3180.3305    4609.8449    1004.9906            0   -14664.898    -2750.221    10574.875   -22489.552    107.03836    3331.8277    48.870875    1.0321752 
  116000    819.58343    302.61594    316.94963    117542.89    3598.9246    9451.5817   -5852.6571    3063.5082     4678.939    987.02891            0   -14582.133   -2717.1486    10640.674   -22505.659    127.94145    3272.1804    48.985264    1.0249611 
  117000    826.73053    295.87456   -25.086835    115939.86    3354.9332    9241.0289   -5886.0956    3107.7358     4581.959    1056.5289            0   -14632.319    -2726.584    10587.269   -22493.004    121.02859    3308.3885     48.76156    1.0391326 
  118000    834.04522    297.46665     845.7422    117024.28    3497.3704    9290.7544    -5793.384    3096.9892    4709.2345    991.81236            0    -14591.42   -2731.6285    10628.184   -22487.975     103.5917    3322.2073    48.913115    1.0295034 
  119000    841.33275    292.94734   -423.32866    117796.14    3352.2473     9149.603   -5797.3557    3101.6274    4719.0355     1043.936            0   -14661.955   -2775.2482    10606.834    -22493.54     106.2884     3300.231    49.020419    1.0227576 
  120000    848.29739    301.60246   -83.316376    117787.83    3620.6832    9419.9278   -5799.2446    3099.6139    4613.6533    1040.3064            0   -14552.818   -2706.3689    10637.312   -22483.762    101.50654    3292.2194    49.019266    1.0228297 
  121000    855.48066    301.77544    381.49986    118466.05    3715.0764    9425.3306   -5710.2543    3159.9994     4559.205      1038.62            0   -14468.079    -2654.307     10665.67   -22479.442    107.40808    3329.3852     49.11317     1.016974 
  122000    862.59641    299.84128   -142.98034    117553.77    3608.8559     9364.921    -5756.065    3188.2496    4661.5417    973.09331            0    -14578.95   -2672.8647    10585.324   -22491.409    109.82034    3325.3011    48.986776    1.0248662 
  123000    869.53619    297.37946    166.94794    118834.99    3733.7104    9288.0312   -5554.3208    3141.5428    4712.2951    1040.4762            0   -14448.635   -2611.0005    10659.281   -22496.916    116.62145    3338.6656    49.164102    1.0138167 
  124000    876.39811    296.20107    188.76883    118125.81    3500.4719    9251.2268   -5750.7548    3145.7276    4639.1331     1027.804            0    -14563.42   -2689.5518    10621.538   -22495.405    116.54683    3315.6118    49.066106    1.0199032 
  125000    883.15432    297.44195    -734.4538    117678.71    3539.6597    9289.9828    -5750.323    3105.4022    4644.9997    1044.3754            0     -14545.1   -2662.0183    10603.082   -22486.164    102.53112    3293.2604    49.004124    1.0237781 
  126000    890.41789    299.24666   -742.83205    117238.85    3479.0519    9346.3492   -5867.2973    3149.7476    4524.8561     1038.448            0   -14580.349    -2760.031    10661.901   -22482.219    123.46942    3307.1613    48.942992    1.0276192 
  127000    897.56554    294.13956    1166.4002    118111.74    3479.6093    9186.8397   -5707.2304    3180.9826    4597.0812    1025.9656            0    -14511.26    -2668.421    10643.492    -22486.33    129.58105    3338.7654    49.064158    1.0200247 
  128000    904.30216    299.82635   -326.13964    118230.97    3549.7079    9364.4547   -5814.7469    3084.3831    4570.3357    1042.9137            0   -14512.379   -2613.3887    10593.193   -22492.183    122.81176     3299.935    49.080663     1.018996 
  129000    911.42054    300.13773     -1248.15    118276.05    3767.3008    9374.1801   -5606.8792    3230.8174    4703.5056    1080.7069            0   -14621.909   -2677.6831    10552.792   -22497.018    109.68151    3366.9558      49.0869    1.0186076 
  130000    918.76831    298.89228   -1068.8909    117513.78    3632.0241    9335.2811    -5703.257    3166.0886    4693.8861    1039.6935            0   -14602.925    -2663.914    10554.645   -22493.656    111.88888    3324.9093     48.98122     1.025215 
  131000    925.94702    295.56889    158.28919    117367.86      3527.12    9231.4819   -5704.3619    3110.3839     4708.053    1000.5683            0   -14523.367   -2595.2385    10561.771   -22489.899    122.93387     3307.004    48.960938    1.0264896 
  132000    933.06531    296.16574   -936.84618    118399.03    3422.3173    9250.1233    -5827.806    3054.8745    4605.0633    1076.4648            0   -14564.209   -2726.8289    10650.973   -22488.352     114.0445    3278.2959    49.103906    1.0175497 
  133000    940.14428     296.4685    170.94442    117276.22    3552.3533    9259.5794    -5707.226    3150.0554    4693.2592    1041.5732            0   -14592.114   -2654.0326    10555.676   -22493.757    107.73983    3330.0151    48.948192    1.0272917 
  134000    947.26329    293.34107   -457.79895    118011.52    3387.8819    9161.9005   -5774.0186    3139.3408    4597.4396    1039.0735            0   -14549.873   -2669.0977    10615.365    -22496.14    103.87981    3304.9114    49.050278    1.0208909 
  135000    954.32204    299.95402   -166.35746    117845.56    3568.2492    9368.4422   -5800.1929    3083.5568    4655.8977    992.53612            0   -14532.184   -2706.6067    10658.552   -22484.129    102.54948    3286.6405    49.027274    1.0223286 
  136000    961.23925    300.00491   -502.73694    117886.91     3512.011    9370.0318   -5858.0207    3114.7122    4599.3696    987.06254            0   -14559.165   -2725.9864    10659.959   -22493.137    119.32655    3291.4727    49.033007      1.02197 
  137000    968.01623     300.9784   -246.76536    118750.96     3874.486    9400.4365   -5525.9505     3201.047    4735.6143     1040.695            0   -14503.307   -2675.0245    10663.817     -22492.1    117.12904    3345.1528    49.152511     1.014534 
  138000    974.87569    298.40187    511.32253       118591    3599.1612    9319.9639   -5720.8027    3096.6979    4670.5035    1046.3566            0   -14534.361   -2650.9327    10603.546   -22486.974    118.42566    3289.8155    49.130432    1.0159025 
  139000    982.00609    297.08554    111.78969       118300      3567.01    9278.8512   -5711.8411    3190.3477    4663.4244     1024.139            0   -14589.752   -2637.7939    10539.607   -22491.565    109.15291     3325.119    49.090213    1.0184014 
  140000    988.94628    300.08521     284.2666    118159.31    3521.6504    9372.5397   -5850.8892    3077.9608    4599.1278    1067.4001            0   -14595.378   -2699.7722    10591.156   -22486.761    103.57381    3288.6849    49.070744     1.019614 
  141000    995.97337    299.51366   -443.05946     119038.3    3806.5057    9354.6884   -5548.1827    3176.2965    4690.7528    1047.2653            0   -14462.497   -2592.4832    10610.297   -22480.311    99.567971    3339.1174    49.192124    1.0120851 
  142000    1002.8613    298.37409   -454.77974    118053.07    3458.5055    9319.0964   -5860.5909    3112.7603    4558.2463    1007.6255            0   -14539.223   -2717.8759    10662.196   -22483.543    124.28782    3289.5101    49.056033    1.0205316 
  143000    1009.7673    303.47619    50.225017    118330.87    3790.2321      9478.45   -5688.2178    3189.4285    4633.8301    1000.0019            0   -14511.478   -2645.0295    10626.628   -22493.077    115.42907    3344.6097    49.094483    1.0181357 
  144000    1016.6073    297.75435    335.21276    118824.47    3580.4373    9299.7401   -5719.3028     3136.605    4610.0568     1000.702            0   -14466.667   -2633.9955    10645.029     -22477.7     108.5833     3302.089    49.162652    1.0139064 
  145000    1023.4438    297.46448    519.92478    117932.64     3532.761    9290.6867   -5757.9257    3104.0632    4624.2228    1027.3443            0   -14513.556   -2680.1748    10662.506   -22495.887    128.55967    3320.4657    49.039347    1.0215737 
  146000    1030.2763    299.19995    66.485446    118814.38    3598.7268    9344.8905   -5746.1637    3121.9017    4608.7105    1037.5953            0   -14514.371   -2670.5665    10646.916   -22490.721    120.51924    3313.5548    49.161259    1.0139925 
  147000    1037.5089     296.3806   -493.19085    117386.18    3457.6237     9256.834   -5799.2103    3166.7349    4586.8512    987.78629            0   -14540.583   -2710.9038    10653.296   -22482.975    123.83812    3335.2326    48.963485    1.0263294 
  148000    1044.5286    298.76033    436.86436    119273.96    3578.9482    9331.1597   -5752.2115    3061.3852     4682.569    953.07533            0   -14449.241   -2710.2267    10748.442   -22487.456     113.4106    3288.7549    49.224564    1.0100854 
  149000    1051.8199    297.71245     -203.741    116830.64     3470.067    9298.4314   -5828.3645    3136.8986    4539.2764    1053.8519            0   -14558.391   -2736.6684    10669.979   -22491.702    119.26318    3310.5591    48.886122    1.0312097 
  150000     1059.173    300.88816    193.57563    117421.84     3709.194    9397.6182   -5688.4242    3170.4599    4646.4221    1036.7046            0   -14542.011   -2739.7443    10692.303    -22494.57     122.9288    3317.6172    48.968442    1.0260178 
  151000     1066.264    297.68368    66.942995    117943.97    3493.5319    9297.5329    -5804.001    3153.1695    4564.7651    964.60777            0   -14486.543   -2656.0331      10670.5    -22501.01    107.36106    3321.0189    49.040917    1.0214756 
  152000    1073.5126    296.26574   -241.13861    117792.21    3382.3807    9253.2464   -5870.8656    3101.9908    4619.2973    973.43009            0   -14565.584   -2730.5838    10652.776   -22487.776    128.54793    3308.2035    49.019874    1.0227916 
  153000    1080.8071    299.28177    201.33337     117601.1    3414.0089    9347.4458   -5933.4369    3122.4451    4601.9865    967.05933            0   -14624.928   -2753.9037    10621.217   -22492.241    105.38367    3296.5724    48.993349    1.0244538 
  154000    1088.1613    302.02939   -343.83548    117122.53    3653.7582    9433.2623   -5779.5041    3222.9096    4589.9473     1026.812            0   -14619.173   -2683.7341    10572.659   -22508.098    124.96938    3348.9328      48.9268    1.0286398 
  155000    1095.3298    296.12904    1646.5452     117969.7    3606.6013     9248.977   -5642.3757    3158.5805    4687.3495    1001.3218            0   -14489.627   -2667.4951    10675.042   -22497.174    102.95274    3336.0185    49.044483    1.0212528 
  156000    1102.6492     295.2188   -14.905605    118020.28    3434.2547    9220.5473   -5786.2926    3148.9211    4599.8152    994.75212            0   -14529.781   -2666.6165    10633.845    -22497.01    121.74831    3324.0102    49.051492    1.0208151 
  157000    1109.6075    297.87303   -170.15941    117932.66    3716.8587    9303.4469   -5586.5881    3253.8379    4716.1277     1013.804            0   -14570.358   -2696.1706    10622.367   -22496.554    110.72239    3370.1505    49.039349    1.0215736 
  158000    1116.6968    297.94625    255.01515    117397.04    3573.7743    9305.7336   -5731.9594    3214.9574    4617.0137    1023.7093            0    -14587.64   -2720.5435    10638.306   -22505.402    109.34263    3337.5014    48.964995    1.0262345 
  159000    1124.0442    297.38438     553.5385    117388.17    3484.7797    9288.1849   -5803.4052    3196.8427    4596.9622     1024.666            0   -14621.876   -2712.7374    10591.701   -22500.839    121.50442    3355.3737    48.963762     1.026312 
  160000    1134.9403    296.65698    72.866127    117294.16    3375.6937    9265.4661   -5889.7724    3086.0328     4645.941     969.3069            0   -14591.053   -2749.6894    10657.354   -22498.718     113.8871    3326.1535    48.950687    1.0271346 
  161000    1142.0207    299.59374   -395.40165    117571.35    3462.9477    9357.1897    -5894.242    3130.8999    4585.9977    955.30429            0   -14566.444   -2752.8465    10677.505   -22491.103    129.93155    3313.5482    48.989217     1.024713 
  162000     1149.038    304.22693   -157.10948    117863.74    3785.0591    9501.8977   -5716.8386    3156.6603    4722.2716    1015.0628            0   -14610.833   -2727.1285    10623.091   -22506.795    111.24018    3324.0956    49.029795    1.0221709 
  163000     1156.243    297.24156   -638.65428    118205.61    3562.6452    9283.7243   -5721.0791    3214.3078    4639.0032    1026.3316            0   -14600.722   -2771.2524     10673.59   -22503.059     119.5591    3359.2824    49.077153    1.0192147 
  164000    1163.5008     300.4284    659.37452     116300.1    3534.6234    9383.2586   -5848.6352    3180.9343    4503.5979    1030.5955            0   -14563.763   -2696.3847    10622.082    -22489.46    114.30326    3321.8581     48.81201    1.0359139 
  165000    1170.7888    299.77948    455.63714    117070.14    3436.3582    9362.9909   -5926.6327    3143.0055    4603.6838    964.74683            0   -14638.069     -2704.15    10566.712   -22500.631    129.58169    3304.8871    48.919505       1.0291 
  166000    1177.9832      297.305    466.75524    117321.86    3595.6648    9285.7054   -5690.0406    3156.1607    4689.0363     1037.489            0   -14572.727   -2703.0706    10632.105   -22501.761    107.32047    3347.1916    48.954541     1.026892 
  167000    1185.1731    297.74056   -45.030727    118047.01    3518.8921    9299.3095   -5780.4174    3150.5895    4603.9246    1009.1158            0   -14544.047   -2685.0904    10635.966   -22494.923    106.29902    3322.0926    49.055193     1.020584 
  168000    1192.2676    298.64393   -394.14634     117512.9    3482.1069    9327.5242   -5845.4173    3136.9219    4597.9252    975.10949            0   -14555.374   -2711.7482    10662.445   -22506.071    119.48633    3324.9937    48.981097    1.0252227 
  169000    1199.4039    302.15739    251.07501    118826.28     3642.686      9437.26    -5794.574    3141.6101    4573.0864    1003.8938            0   -14513.164   -2673.4916    10665.874   -22505.546    114.45333    3321.5891      49.1629     1.013891 
  170000    1206.2737     299.4668   -361.26293    118998.37    3708.4645    9353.2248   -5644.7603    3168.3123    4668.0468    968.14654            0   -14449.266   -2617.5825    10661.953   -22493.637    134.24942    3349.7816    49.186622    1.0124247 
  171000    1213.3915    299.58928    -237.6708     116648.3    3478.7594    9357.0504    -5878.291    3164.4006    4586.3115    1008.5541            0   -14637.557   -2770.6552    10630.321   -22497.223    109.08398    3324.7092    48.860676    1.0328217 
  172000    1220.6233    302.67363   -73.378816    117873.22    3627.9685    9453.3836   -5825.4151    3197.4239    4529.3251    987.47652            0   -14539.641    -2667.414    10607.372   -22479.599    104.92998    3354.3552    49.031109    1.0220887 
  173000    1227.8734    300.61615    370.73039    117596.17    3583.7081    9389.1225   -5805.4144    3109.3889     4664.615    1007.9245            0   -14587.343    -2753.744    10652.213   -22485.811    115.70989    3313.8837    48.992664    1.0244967 
  174000     1234.756    299.08332   -524.05393    118052.55    3578.3429    9341.2478   -5762.9049    3093.0894    4691.0243    995.78405            0   -14542.803   -2766.6555    10706.543    -22482.69    120.67276    3316.4908    49.055961    1.0205361 
  175000    1241.8045    298.72535   -213.80456     116671.3    3408.9813    9330.0674   -5921.0861    3159.3824    4505.4926     971.6641            0   -14557.625   -2740.8434    10673.513   -22490.295    146.27708    3316.8303    48.863888     1.032618 
  176000    1249.0262    296.81899   -531.26908    117781.78    3490.2133     9270.526   -5780.3127    3207.4114    4652.5951    980.60236            0   -14620.922   -2738.1454    10600.365   -22483.141    119.98897    3364.5291    49.018427    1.0228822 
  177000    1256.3207    297.43809   -1184.0796     117442.1    3662.8732    9289.8625   -5626.9892    3255.5501    4726.1764    1023.5707            0   -14632.286   -2815.6578    10663.593   -22480.221    126.95977    3375.0998    48.971259    1.0258408 
  178000    1263.5644    301.17712   -30.737189    117302.97    3662.2099    9406.6433   -5744.4333    3209.7156    4608.9543    1043.2796            0   -14606.383   -2693.4671    10588.673   -22501.589    112.79505    3343.3642    48.951913    1.0270575 
  179000     1271.017    294.93406    288.20458     116972.3    3187.1478    9211.6543   -6024.5065    3051.8653    4594.8763    954.07457            0   -14625.323   -2713.6136     10579.67   -22491.379    113.16321    3282.0391    48.905872    1.0299609 
  180000    1278.5285    299.24832   -210.87174    118021.07    3619.8391    9346.4012   -5726.5621     3187.382    4583.0045    1021.1153            0   -14518.064   -2710.4184    10682.228   -22489.874     107.2733    3327.7807      49.0516    1.0208083 
  181000    1285.6401    300.40505    516.15397    117727.24    3563.9164    9382.5292   -5818.6128      3183.33     4590.877    1030.0283            0   -14622.848   -2748.9423    10619.613   -22493.519    127.70443    3331.7753    49.010859    1.0233561 
  182000    1292.7925    297.02768    425.81522    117285.94    3415.0751    9277.0442   -5861.9691    3174.0256    4536.0768    982.44249            0   -14554.514   -2735.6317    10673.249   -22492.131    129.45924    3338.4991    48.949545    1.0272065 
  183000     1299.977    299.23396    163.18156    117269.17    3310.6129    9345.9528   -6035.3399    3126.4098    4448.2024    1045.5028            0   -14655.455   -2783.1091    10619.094    -22491.44    132.40904     3300.058    48.947211    1.0273535 
  184000    1307.1255    295.75026   -785.39344       117554    3556.3353    9237.1466   -5680.8113    3208.8934     4734.977     1050.904            0   -14675.586   -2783.4204    10597.436   -22489.601    125.35995    3351.2062    48.986808    1.0248642 
  185000    1314.3573    294.11495   -924.18023    117458.09    3372.3229    9186.0711   -5813.7482    3200.8394    4608.4387    1045.9072            0   -14668.934   -2765.2422    10594.448   -22498.139     113.2764    3332.4663    48.973481    1.0257011 
  186000    1321.5517    297.48633   -88.437472    117482.14    3486.0633    9291.3692   -5805.3058    3142.8724     4647.603     999.7556            0   -14595.537   -2713.4685    10619.544   -22501.612    112.25968    3326.3198    48.976824    1.0254911 
  187000    1328.7518    296.43752    73.300413    117283.82    3341.9001    9258.6115   -5916.7115    3145.0565    4619.6743    962.18413            0   -14643.626   -2710.5239    10565.799   -22498.901    125.67781    3321.0052    48.949249    1.0272251 
  188000     1335.928    295.52809    496.18468    116848.69     3489.862    9230.2075   -5740.3455     3133.366    4738.2323    1027.0561            0       -14639   -2676.0101    10543.091   -22506.081    103.09067    3327.6372     48.88864    1.0310504 
  189000    1343.6067    297.62587    733.95385    117067.21    3398.9113    9295.7272   -5896.8159      3151.45    4549.3339    976.99881            0   -14574.599   -2668.7084    10586.108   -22491.998    112.23433    3317.7662    48.919096    1.0291258 
  190000    1350.8605    296.05018    78.980066    117923.33    3423.9446     9246.514   -5822.5694    3158.0016    4534.4477    1007.1783            0   -14522.197   -2617.9656    10586.643   -22490.874    133.77373    3335.7869    49.038056    1.0216544 
  191000      1357.98    297.25201    277.04286    116391.61     3290.107    9284.0506   -5993.9436    3144.3086    4503.3692    1047.6243            0   -14689.246   -2760.8101    10575.818   -22504.254     119.3919    3307.8076    48.824809    1.0350995 
  192000    1365.3025    298.04604    127.57162    117255.72    3414.0844    9308.8506   -5894.7662    3125.8668    4675.1984    1022.7012            0   -14718.533   -2798.6782    10575.195   -22495.049    135.75546     3311.268     48.94534    1.0274713 
  193000    1372.6426     301.4945    8.4614094     116856.1    3553.1847     9416.556   -5863.3714     3085.621    4647.5297    1055.5848            0   -14652.107   -2744.5939    10599.709   -22507.222    127.23464    3295.0422    48.889672     1.030985 
  194000     1380.002    300.97329   -757.70939    116445.43    3616.2834    9400.2769   -5783.9935    3169.7359    4690.1258    1030.7801            0   -14674.635   -2855.1785    10670.252   -22489.709    104.77545    3335.7002    48.832333    1.0346211 
  195000    1387.1481    297.29154   -112.14691    117258.38    3430.8023    9285.2851   -5854.4828    3164.1621    4608.0724    1050.1366            0   -14676.854   -2695.2679    10514.141   -22495.727    109.40413    3324.9546     48.94571     1.027448 
  196000    1394.4478    295.10107    193.53516    116560.47    3247.9142    9216.8705   -5968.9564    3069.3092    4605.6489    1028.9588            0   -14672.873   -2765.3023    10588.954   -22496.525    119.34266    3293.9555    48.848409    1.0335999 
  197000    1401.6139    299.26369    119.57059    117453.56    3503.1461    9346.8811    -5843.735    3150.1155     4615.765    1041.5679            0   -14651.183    -2714.194    10551.923   -22488.913     114.3671    3322.2631    48.972852    1.0257406 
  198000    1408.9601    294.93978   -274.36097     118326.6    3380.0762    9211.8327   -5831.7564     3130.338     4653.134    1011.3084            0   -14626.537   -2698.8732    10570.747   -22498.411     133.9994    3337.3835    49.093892    1.0181725 
  199000    1416.0488    299.27878    1353.3031    118030.08    3643.8017    9347.3524   -5703.5507    3202.7245    4617.3905    1075.1145            0    -14598.78   -2626.9355    10528.589   -22500.434    114.66919    3346.0918    49.052848    1.0207304 
  200000    1423.3524    295.02989    520.37628    117662.23    3391.0512    9214.6473   -5823.5961    3129.5728    4664.6256    993.85992            0   -14611.654   -2738.1271    10629.737   -22503.264    123.07044    3324.5278    49.001837    1.0239215 
  201000    1430.6573    298.47433    666.74364    116746.27    3539.8031    9322.2273   -5782.4242    3150.7489    4655.1172    1009.0365            0   -14597.327   -2736.4347     10640.24   -22501.132    101.44498    3317.7052    48.874351     1.031955 
  202000    1437.8655    297.73204   0.16241677    117957.74    3389.5759    9299.0434   -5909.4675    3125.7728      4546.11     1014.621            0   -14595.971    -2662.932    10565.733   -22498.773    106.19931    3296.0253    49.042825    1.0213564 
  203000    1445.0238    302.15399    78.554016    117159.46    3684.6306    9437.1536    -5752.523    3164.8523    4674.6638    1087.4289            0   -14679.468   -2709.0126    10532.086   -22502.541     109.4343     3321.137    48.931942    1.0283155 
  204000    1452.1075    300.51506    171.91625    116818.59     3440.921    9385.9652   -5945.0442    3128.6753    4581.2587    1043.1128            0   -14698.091   -2756.9961    10562.014   -22503.108    111.35992    3302.9089    48.884441    1.0313161 
  205000    1459.6085    298.80668    224.44685    117242.16    3511.1081    9332.6075   -5821.4993    3115.4411      4610.15    1071.3823            0   -14618.473   -2706.7931    10580.394   -22492.073    148.67203     3307.186    48.943453    1.0275901 
  206000     1466.662    297.74363   -1084.0138    117394.22    3541.5478    9299.4053   -5757.8575    3225.1236    4610.4203    1034.1225            0   -14627.524   -2755.3665    10623.875   -22496.033      126.723    3328.4317    48.964603    1.0262592 
  207000    1473.9083     297.2657    86.751901    117545.48    3455.5873     9284.478   -5828.8907    3064.1971    4643.0571    1049.8437            0   -14585.989   -2684.0902    10586.196   -22488.095        123.2    3292.2736    48.985623    1.0249385 
  208000    1481.2831    299.14703    799.96418    117497.72    3607.2947    9343.2375   -5735.9427    3157.6268    4617.1449    1045.3616            0   -14556.076   -2758.5259    10700.791   -22498.341    120.08002    3340.4068    48.978988    1.0253551 
  209000    1488.2744    296.31788   -797.06771    117913.56    3417.9036    9254.8749   -5836.9712    3135.2897    4549.4434    1031.1911            0   -14552.895   -2663.0505    10602.559   -22492.404    123.55212    3284.7294    49.036702     1.021739 
  210000    1495.5902    300.43352   -63.199744    117413.23    3491.6584    9383.4184     -5891.76    3054.6206     4665.106    990.37168            0   -14601.858   -2751.0339    10650.617   -22501.441    109.66723    3291.6712    48.967246     1.026093 
  211000    1503.0503    303.25202    1152.2579       116821    3689.8644    9471.4484    -5781.584    3134.2641     4639.265    1032.5441            0   -14587.657   -2676.9607    10581.637   -22492.334    105.75926    3317.4811    48.884777    1.0312948 
  212000    1510.2799    299.67692     260.0104    117282.43    3484.9368    9359.7875   -5874.8507    3096.6694    4614.2285    1044.7905            0   -14630.539   -2705.8873    10577.526   -22502.178    100.46963    3286.7947    48.949056    1.0272373 
  213000    1517.3972    296.38971    277.71917    118072.78    3611.4924    9257.1183    -5645.626    3198.8941    4657.7555    1029.2021            0   -14531.478   -2664.5769    10629.145   -22496.046    115.51119    3339.3147    49.058764    1.0203612 
  214000    1524.3102    295.92472   -173.03411    118240.39    3446.1265    9242.5953   -5796.4688    3126.9768    4656.9757    1035.4082            0    -14615.83   -2697.4372    10582.573   -22500.965    121.33571    3302.3736    49.081967    1.0189148 
  215000     1531.321    298.07765    595.65012    117398.15    3533.7711    9309.8375   -5776.0664    3129.9041    4613.5523    1016.0274            0    -14535.55    -2711.213    10668.114   -22492.451    114.05802    3316.7684    48.965149    1.0262248 
  216000    1538.6524    299.97895   -76.280725    117199.35    3527.2335    9369.2209   -5841.9874    3101.1118    4620.2352    1036.7054            0    -14600.04   -2749.8433    10645.713   -22495.909    114.04997    3304.1965    48.937495    1.0279655 
  217000    1545.8387    295.14026     223.8566    117383.99    3311.4903    9218.0945   -5906.6042    3060.3442    4655.7631    982.41931            0   -14605.131   -2780.1843    10662.072   -22487.019    98.815056    3318.1974    48.963181    1.0263485 
  218000    1552.7703    299.55553    -599.5719    118291.36    3475.2755    9355.9963   -5880.7207    3171.0866    4567.1111    1035.3432            0   -14654.262   -2755.3004    10599.867   -22498.828    100.87286    3302.2998    49.089017    1.0184758 
  219000    1559.7745    300.43904     658.6035    117415.05     3623.839     9383.591    -5759.752    3208.7081    4608.4724    1024.4912            0   -14601.424   -2643.8225    10527.401   -22485.002    102.29445    3360.1195    48.967499    1.0260771 
  220000    1566.8301    299.92071   -71.958145    117017.86    3434.9763    9367.4018   -5932.4255    3089.6281    4619.9131    1002.3205            0   -14644.287   -2802.9104    10647.072   -22488.449    119.15582     3312.894    48.912221    1.0295599 
  221000    1573.9097    299.89902     852.5557     117151.8    3541.3876    9366.7245    -5825.337    3155.0988    4624.2734    989.70631            0   -14594.415   -2701.9751    10595.626   -22488.066    107.56642    3316.7077    48.930876    1.0283827 
  222000    1581.3437    297.03812    637.27127    117547.03    3611.5893    9277.3702   -5665.7809    3175.4119    4663.5853    1041.9787            0   -14546.757   -2651.7568    10598.144   -22493.144    139.83612    3343.3168     48.98584     1.024925 
  223000    1588.3967    297.95303   -814.30683    117641.73    3504.5203    9305.9456   -5801.4253    3188.8344     4558.742    1011.4588            0    -14560.46   -2675.4899    10613.715   -22498.685    104.86098    3352.7709     48.99899       1.0241 
  224000    1595.3223    299.53983   -531.02977    118471.17    3593.9916     9355.506   -5761.5144    3140.7005    4642.4688    1029.4423            0   -14574.126   -2671.3536    10595.901   -22498.674     110.7524    3305.6461    49.113877    1.0169301 
  225000    1602.3998    297.81214    531.74708    117303.28    3466.8763     9301.545   -5834.6687    3146.1812    4573.6144    1027.5988            0   -14582.063   -2732.9502    10649.819   -22498.932    114.41065    3321.0634    48.951957    1.0270547 
  226000    1609.4381    294.34956    257.25097    116973.62    3308.7071    9193.3984   -5884.6913    3181.1152    4505.6747    992.20841            0    -14563.69   -2727.4219    10651.354   -22487.622    108.23852    3341.9057    48.906056    1.0299492 
  227000    1616.4736    299.09888     583.3394    117611.42    3431.1264    9341.7337   -5910.6073    3130.6046    4554.6572    1009.8497            0   -14605.719   -2734.7907    10627.941   -22498.869    118.41347    3321.3195    48.994782    1.0243639 
  228000    1623.7251    298.22889    425.38311    117826.49    3650.4069    9314.5615   -5664.1546    3176.0387    4642.3631    1037.4883            0   -14520.045   -2625.6184    10602.244    -22496.67    96.445314     3345.221    49.024628    1.0224941 
  229000    1630.9089    292.57288   -72.503817    117779.12    3378.7901    9137.9076   -5759.1175    3206.9628    4595.3103    970.85929            0    -14532.25    -2680.824    10630.882   -22482.308    113.35745    3327.4546    49.018059    1.0229053 
  230000    1638.2044    301.34309    258.98152    117883.54     3642.594     9411.827    -5769.233    3113.0501     4699.736    989.25947            0   -14571.279   -2736.9311    10652.728   -22487.075    106.99855    3325.5666     49.03254    1.0219992 
  231000    1645.1316    298.05293   -863.52179    117177.97    3493.8973    9309.0658   -5815.1684    3176.2552    4613.4677    1045.3697            0   -14650.261   -2783.8259    10630.885   -22497.321    109.66424    3317.6741    48.934518    1.0281531 
  232000     1652.267    295.06807   -355.63208    117262.13    3407.3725    9215.8398   -5808.4673    3119.5291     4580.741    1008.5943            0   -14517.332   -2703.7626     10678.35   -22491.919    98.513663    3310.5945    48.946231    1.0274152 
  233000    1659.3858     298.8242   -56.591094    117655.59    3432.1998    9333.1547   -5900.9549    3066.1812     4642.793    969.06597            0   -14578.995    -2699.266    10623.978   -22503.707    108.74478    3298.3569    49.000914    1.0239793 
  234000    1666.1099    301.96342   -382.61762    117559.07    3642.2419    9431.2018   -5788.9599    3165.5905    4637.2867    999.08411            0   -14590.921   -2724.0551    10630.569   -22497.435    125.09014    3329.0095    48.987512      1.02482 
  235000     1673.214    293.63496     -128.402    118203.77    3370.9132    9171.0795   -5800.1663    3193.3513    4581.9645    1003.1229            0   -14578.605   -2660.0109    10579.618   -22498.212    121.02426    3365.7653    49.076898    1.0192305 
  236000    1680.3502    301.25465   -875.26299     117403.3     3682.503    9409.0648   -5726.5617    3206.7581    4657.4863    1009.0272            0   -14599.833   -2776.3559    10681.295   -22504.773    102.01881    3343.9742    48.965865    1.0261798 
  237000    1687.6127    300.13488   -914.07511    117636.42    3488.5053    9374.0909   -5885.5856    3138.5231    4613.8621    960.09815            0   -14598.069   -2719.4608    10615.348   -22493.956    107.24328    3307.4797    48.998254    1.0241461 
  238000    1694.9785     297.3618   -412.67925    117028.26    3528.7319    9287.4797   -5758.7477    3193.8888    4647.5188    1006.5022            0   -14606.657   -2710.5207    10604.348   -22500.484    111.03684    3345.6527     48.91367    1.0294683 
  239000    1702.3654    300.56591    690.62414    115998.41    3575.3214    9387.5533   -5812.2318    3137.3713    4669.7531    1036.6962            0   -14656.052   -2825.0631    10670.086   -22501.076    118.06707    3347.2545    48.769767    1.0386081 
  240000    1709.6775    295.39055   -596.66893    116729.72    3531.1067    9225.9118   -5694.8051    3181.7857    4671.9108    1052.4477            0   -14600.949   -2741.5888    10632.484   -22491.845    120.15161    3327.5917    48.872041    1.0321013 
  241000    1717.0783    300.20533   -1203.5528    117839.79    3618.9444    9376.2915   -5757.3471    3228.6496    4628.9292    983.05464            0   -14597.981   -2753.6814    10652.886   -22497.185    103.13004    3342.6589    49.026474    1.0223787 
  242000      1724.21    299.73615   -456.35819    117474.76    3578.1866    9361.6376    -5783.451    3127.5765    4650.2734    993.89818            0   -14555.199   -2733.9067    10676.232   -22497.525    132.81729    3301.5086    48.975797    1.0255556 
  243000    1731.5886    298.19844    51.750691    117306.07    3396.9312    9313.6104   -5916.6792    3171.2475      4506.68    1006.8275            0   -14601.434   -2771.7134    10658.094   -22487.815    133.35769    3331.4397    48.952345    1.0270303 
  244000    1739.1285    299.76084   -316.23473     116768.2    3482.9616    9362.4086    -5879.447    3202.1064    4569.3365    968.47825            0   -14619.368   -2684.7229    10563.091   -22497.736    111.96563    3346.5916    48.877412    1.0317611 
  245000    1746.6385    296.65384    509.87025    116100.71    3373.5882     9265.368   -5891.7799    3152.5817    4565.0529    1016.4323            0   -14625.847   -2775.6667    10636.285   -22486.465     114.6068    3315.4028      48.7841    1.0376929 
  246000    1754.2485    297.39822    666.81364    116842.17    3465.7532    9288.6172    -5822.864    3123.8677    4687.2473    1026.9955            0   -14660.975   -2785.9464    10624.174   -22499.202    101.61505     3319.942    48.887729     1.031108 
  247000    1761.5718    296.76705   -117.25406    116852.63    3432.9113    9268.9039   -5835.9927    3162.3489    4577.0105    1042.5522            0   -14617.904   -2642.4508    10520.185   -22495.639    116.18892    3308.3494    48.889188    1.0310157 
  248000    1768.7772    296.47196    62.032984    117622.02    3398.1331    9259.6872   -5861.5541    3129.3686    4602.0968    1045.6788            0   -14638.698   -2679.1364    10543.347   -22502.909    102.14025    3314.0166    48.996254    1.0242715 
  249000    1775.9837    298.27922   -40.022591     116534.6    3478.2424    9316.1332   -5837.8907    3231.3575     4603.401    978.77502            0   -14651.424   -2792.0825    10627.388   -22486.729      118.676    3343.0405    48.844796    1.0338293 
  250000    1783.0111    301.41036    466.14029    117927.21    3681.5946    9413.9278   -5732.3332    3178.0825    4631.7575    1064.1899            0   -14606.363   -2680.5871    10559.792   -22485.568    102.16513    3335.2821    49.038594    1.0216208 
  251000    1790.3907    296.62984   -60.455672    117407.78    3423.3584    9264.6182   -5841.2598    3137.7384    4620.7014    1012.3656            0   -14612.065   -2705.8192    10578.492   -22484.738    118.20395    3318.9572    48.966488    1.0261406 
  252000     1797.541    302.15833   -236.94791    117483.48    3567.1031    9437.2894   -5870.1863    3115.9168    4557.8395    1017.9063            0   -14561.849   -2701.5021    10629.362   -22489.709      118.867    3282.1883     48.97701    1.0254794 
  253000    1804.8241    297.34272    345.89098    116393.51    3384.9939    9286.8836   -5901.8898    3139.9803    4603.3696    1074.3429            0   -14719.583   -2748.5497      10522.5   -22493.533    110.87121    3292.0937    48.825075    1.0350825 
  254000    1812.0625    297.99162    195.50261    117378.29    3625.2519    9307.1507   -5681.8988    3167.8995    4658.6508    1050.4116            0   -14558.861   -2730.0924    10666.839   -22495.608    101.29672      3351.16    48.962389    1.0263984 
  255000    1819.5643    301.03922   -117.28308    116735.96     3504.251    9402.3363   -5898.0853    3158.5981    4559.3096    1021.9797            0   -14637.973   -2705.9603     10571.89   -22503.902    102.21592    3331.7116    48.872913    1.0320461 
  256000    1826.8936    296.70335   -272.84496    117761.23    3466.2022    9266.9142    -5800.712    3136.9717     4669.352    992.98848            0   -14600.024     -2714.26    10616.548   -22502.312    114.33594    3349.3798    49.015576    1.0230607 
  257000    1834.1581    298.03237   -294.06315    116120.02    3421.8326    9308.4236    -5886.591    3087.7979     4699.666     1027.157            0   -14701.212   -2828.7664    10625.359   -22497.805    125.62384    3297.7604    48.786803    1.0375204 
  258000    1841.5094    296.99011   -545.18471    116411.65    3278.8612    9275.8705   -5997.0093    3121.3928    4530.2341    984.96819            0   -14633.604   -2773.7387    10637.716   -22497.582    105.35377    3321.4035    48.827612    1.0349212 
  259000    1848.8459    297.56213    387.99516    116990.78    3480.1586    9293.7363   -5813.5777    3142.9327    4703.4271    991.29767            0   -14651.235   -2758.1139    10606.886   -22500.007     111.8559    3346.8503    48.908447    1.0297982 
  260000    1856.1155    303.77812    692.35657    116061.81    3473.8385    9487.8802   -6014.0417    3092.1959    4511.3056    1017.9785            0   -14635.522   -2739.0374     10601.88   -22498.364    108.16017    3308.3599    48.778651    1.0380407 
  261000    1863.3595    298.42618    51.836366    117612.08    3443.2829    9320.7233   -5877.4403    3178.3537    4588.6854    941.87159            0   -14586.351   -2675.9109     10593.53    -22503.97    137.42521    3325.2695    48.994874    1.0243581 
  262000    1870.7242    297.60564    38.395154    116777.67    3465.2543    9295.0955   -5829.8412    3203.3498     4588.107    998.65706            0   -14619.955   -2715.9963    10590.185   -22494.143    120.91334    3341.0885    48.878732    1.0316775 
  263000    1878.0937    296.90591   -666.38479    117560.86    3444.5899    9273.2407   -5828.6508    3177.1077    4607.1904    981.06757            0   -14594.016   -2700.5172     10599.41   -22492.909    133.70488    3323.9052    48.987761    1.0248044 
  264000    1885.3957    297.50848    -1067.086    116912.13    3482.4667    9292.0608   -5809.5941    3202.5778    4685.7581    1014.9043            0   -14712.834   -2807.1459    10588.417   -22494.105    117.15588    3342.9161    48.897485     1.030491 
  265000    1892.8673    301.81231   -1144.0824     117042.5    3602.4196     9426.482   -5824.0625    3149.3886    4612.8408    1079.0386            0    -14665.33   -2735.0277    10566.058   -22496.361    108.12605     3309.314    48.915653    1.0293431 
  266000    1900.1829    298.64928    410.89978    116712.58    3367.5485    9327.6912   -5960.1427    3061.5616    4609.3139    1025.4096            0   -14656.428   -2769.6171    10611.943   -22498.754    107.88497    3291.2172     48.86965    1.0322528 
  267000    1907.5482    297.33129    882.42539    116693.53    3463.0264    9286.5268   -5823.5004    3090.7771    4729.4698    1048.1668            0   -14691.914   -2769.4546    10574.289   -22496.749    126.67087    3308.0332     48.86699    1.0324213 
  268000    1914.9363    301.38859    618.51665    117036.29    3611.6485     9413.248   -5801.5995    3188.0901    4584.6478     1036.101            0   -14610.438   -2693.0155    10572.796   -22490.219    119.61491    3333.0318    48.914789    1.0293977 
  269000    1922.2546    296.09882    750.31272    115752.96    3370.9651    9248.0331    -5877.068     3179.542    4575.0686    1038.3397            0   -14670.018   -2742.2309    10568.361   -22496.148    112.45392    3341.1155    48.735344    1.0408104 
  270000    1929.6329    296.49945    215.54386    116790.96    3395.3846    9260.5458   -5865.1613    3118.8192    4628.3583     1034.868            0   -14647.207   -2777.3886    10624.028   -22493.846    115.97849    3309.7567    48.880586    1.0315601 
  271000    1937.0163     296.2546    321.53213    117097.18    3555.8769    9252.8984   -5697.0215    3169.5281    4691.7452    1016.0149            0    -14574.31   -2691.5323      10610.3   -22493.078    119.66682    3347.3582     48.92327    1.0288624 
  272000    1944.2954    299.08215   -351.92314     117147.9    3439.7221    9341.2111    -5901.489    3173.7975    4576.0134    1004.9152            0   -14656.215   -2678.5805    10516.843   -22494.477    119.99182    3336.0234    48.930333     1.028417 
  273000    1951.7354    302.45474   -373.17411     117032.1    3550.9296    9446.5471   -5895.6175     3199.044    4574.7662    960.49311            0   -14629.921   -2752.0457    10617.266   -22495.141    123.34133    3338.2354    48.914204    1.0294346 
  274000    1958.7773    296.23457    383.49159    118506.56    3427.9982    9252.2729   -5824.2747    3137.1616    4579.6532    989.43324            0   -14530.523   -2717.7976    10677.304    -22490.03    133.63282    3332.1493    49.118768    1.0166263 
  275000    1965.7511     298.8021   -261.87429    118395.63    3678.8085    9332.4643   -5653.6557    3215.2058    4657.1655    1004.9297            0   -14530.957   -2664.9762    10622.516   -22488.496     113.1333     3346.005    49.103437    1.0175789 
  276000    1972.7231    298.51401    179.37166    116741.88    3488.8965    9323.4665   -5834.5701    3146.0545    4599.4817    1025.0336            0    -14605.14   -2677.0031    10560.343    -22488.48    104.62266    3311.3236    48.873738    1.0319938 
  277000    1979.7201     296.3935   -171.44509    117584.85    3383.1176    9257.2368   -5874.1192    3095.7794    4616.5691    1014.4533            0   -14600.921   -2656.1076    10556.812   -22501.626    107.24578    3314.1759    48.991093    1.0245953 
  278000    1986.7263    295.86324     248.0372    116677.36     3429.027    9240.6752   -5811.6482    3117.2771    4702.3845    993.74988            0    -14625.06   -2652.9916    10533.278   -22505.346     111.2562    3305.4415    48.864733    1.0325644 
  279000    1993.8256     298.2554     304.9583    118125.34    3547.4814    9315.3892   -5767.9078    3139.5924    4628.5424    1027.9504            0   -14563.993   -2639.1527    10563.959   -22488.799    112.48739    3318.3703    49.066042    1.0199072 
  280000    2000.9838    303.17453    317.60769    116552.07     3595.951    9469.0281   -5873.0772    3112.1608    4624.8704    1028.4278            0   -14638.536   -2763.5662    10605.488   -22480.458    117.70667    3300.2377    48.847237    1.0336744 
  281000    2008.1813    293.07779   -85.387336    116940.87     3337.952    9153.6775   -5815.7254    3174.1261    4582.6631    1027.5925            0   -14600.107   -2770.5687     10666.95   -22496.489     108.7494    3326.9788    48.901491    1.0302377 
  282000    2015.3667    294.71673   -445.03077    117854.88      3515.21    9204.8662   -5689.6563    3201.7043    4651.5876    1018.1319            0    -14561.08   -2681.9123    10609.349   -22488.517    123.19332    3325.5365    49.028566    1.0222478 
  283000    2022.4183    298.05446    1052.8981    116470.77    3457.4288    9309.1133   -5851.6845    3176.3573    4582.9823    1000.5039            0   -14611.528    -2646.746    10536.338    -22501.12     114.8163    3334.1545    48.835876    1.0343959 
  284000    2029.6546    298.21857   -657.00949    118232.94    3503.1523    9314.2391   -5811.0868    3154.2735    4591.7375    1018.1092            0   -14575.207   -2728.1173    10658.017   -22505.106    113.87924    3303.0958    49.080935    1.0189791 
  285000    2036.7207    296.16853   -24.470309     117534.7    3439.5231    9250.2104   -5810.6874    3118.2293     4586.093    1043.0905            0     -14558.1   -2643.1174    10578.002   -22492.985    109.69927    3299.5868    48.984126    1.0250325 
  286000    2043.6922    295.71202   -129.30684    118389.08     3447.319    9235.9522   -5788.6332    3146.1773    4568.7651    1013.6732            0   -14517.249   -2748.4269    10724.563   -22493.385    115.57994    3326.9442    49.102532    1.0176351 
  287000    2050.8611    294.54442   -356.91766    118551.58    3579.8825    9199.4846   -5619.6021    3170.7588    4731.8113    1043.1194            0   -14565.292   -2714.7374    10653.305   -22503.859    117.71528    3323.2507    49.124988    1.0162402 
  288000    2058.2684    299.22711   -264.44572    118302.74    3676.6291    9345.7388   -5669.1097     3204.827    4653.8691     1031.426            0   -14559.232   -2646.6657     10579.59   -22492.156    113.58646    3353.6675    49.090592    1.0183778 
  289000    2065.3465    295.42872   -271.59219    118177.89    3369.6029     9227.104   -5857.5011    3091.2736    4548.2017    1013.2879            0   -14510.264   -2562.1078    10554.613   -22502.769    119.79578    3304.1861    49.073317    1.0194537 
  290000    2072.1623    298.60782    508.56978     118914.8    3623.9149    9326.3963   -5702.4814    3109.7394    4652.2108    1030.0708            0   -14494.502   -2662.1888    10662.499   -22494.812    120.41692    3314.1529    49.175106    1.0131362 
  291000    2078.9926    296.99962   -445.89882    118416.44    3444.0967    9276.1675   -5832.0708    3073.6693    4602.2252    1051.6831            0   -14559.648   -2657.3417    10593.498   -22495.805    104.91408    3277.0384    49.106314       1.0174 
  292000    2085.8772    297.36427   -403.80999    117718.37    3582.3808    9287.5569   -5705.1761    3172.0149    4631.9408    994.97896            0   -14504.111   -2659.2633    10648.893    -22493.74    108.70152    3297.0812    49.009628    1.0234332 
  293000    2092.6848    298.60562    104.10241    119247.27    3500.4877    9326.3276     -5825.84    3105.4411     4541.296    1018.2537            0   -14490.831   -2585.1621    10593.899   -22499.567    105.55725    3303.5712    49.220892    1.0103115 
  294000    2099.4399    295.62993    69.287807    117861.39    3539.4082    9233.3883   -5693.9802    3176.4033    4625.2812    1037.7687            0   -14533.433   -2643.5672    10602.851   -22492.717    101.64743    3304.3119    49.029469    1.0221913 
  295000    2106.3603    300.29211   -453.87187    118552.49    3637.8725    9379.0018   -5741.1293    3170.1429    4616.9017    1021.3531            0   -14549.527   -2640.1272    10586.075   -22495.475    117.08235    3325.5807    49.125113    1.0162324 
  296000    2113.4133    295.05294    324.42991    119043.18    3498.0434    9215.3671   -5717.3236    3112.4313    4628.3643    1000.3266            0   -14458.446   -2657.4187    10700.189   -22501.216    102.11932    3288.0323    49.192796    1.0120436 
  297000    2120.4218    296.97404    467.80458    118731.78     3537.772    9275.3687   -5737.5967    3148.5629    4611.4317    1005.5323            0   -14503.124   -2643.1803    10635.979   -22495.923    107.39933    3297.4893    49.149865    1.0146979 
  298000    2127.4958    300.49669    60.113937    117448.66    3482.8253    9385.3914   -5902.5661    3093.7421    4629.2825     1012.063            0   -14637.654   -2702.6088    10563.918   -22498.963    113.26436    3299.4765     48.97217    1.0257835 
  299000    2134.4682    295.77567    339.46188    118191.57    3499.1593    9237.9402   -5738.7809    3150.9899    4544.6178     1032.091            0    -14466.48   -2613.3365    10635.815   -22488.958    110.28549    3318.3027     49.07521    1.0193357 
  300000    2141.2928     296.3119    573.73436    118034.96    3366.1925    9254.6882   -5888.4957    3091.6474    4559.7592    1044.0789            0   -14583.981    -2653.858    10568.496    -22498.62    116.27073    3287.3647    49.053524    1.0206882 
[...]
 1932000    14377.617    300.79134     174.5695    118109.02    3565.5796    9394.5942   -5829.0146    3098.9682    4672.9214    1079.7064            0   -14680.611   -2695.0409    10520.191   -22505.761     124.2144     3329.835    49.063782    1.0200482 
 1933000    14384.977    299.75076   -399.97426    117670.91    3473.5451    9362.0939   -5888.5488     3004.217    4748.5704    1044.4606            0   -14685.797    -2761.896    10565.095   -22488.996    100.11695    3292.0072    49.003042     1.023846 
 1934000    14392.673    299.91647   -620.84181    118357.76    3488.1226    9367.2693   -5879.1467    3141.5731    4576.8021     1042.316            0   -14639.838   -2673.2204    10536.291   -22502.909    117.48391    3313.6104    49.098201    1.0179044 
 1935000    14400.174    297.44713   -37.822989     118248.6    3384.5634    9290.1448   -5905.5814    3105.6374    4526.0065     1045.385            0    -14582.61   -2692.2773    10615.372   -22505.705     104.9701     3290.423    49.083103    1.0188441 
 1936000    14407.487    298.54684    708.95705    118588.96    3406.9824     9324.492   -5917.5096    3082.7194    4612.3804    1031.0605            0    -14643.67   -2674.5304    10532.261     -22501.4    119.19959    3300.4887     49.13015    1.0159199 
 1937000    14414.937    298.20346    916.94954    117343.38    3454.9391    9313.7672   -5858.8281    3195.0409    4564.6285    1028.3756            0   -14646.873   -2639.9536    10500.788   -22507.708    105.91445    3336.3926    48.957534    1.0267038 
 1938000    14422.491    300.75543   -832.11782    119113.74    3594.0438    9393.4726   -5799.4288    3155.5009    4594.8498    1033.0437            0   -14582.823   -2649.3916    10570.296   -22503.727     116.1488    3311.4875    49.202513    1.0114441 
 1939000    14429.779    299.21124   -422.77286    119263.68     3622.949     9345.243   -5722.2941    3095.9453     4679.432    1070.1975            0   -14567.869   -2677.8928    10619.957   -22509.933    134.04938    3311.1839     49.22315    1.0101725 
 1940000    14436.927    298.82481     573.4533    118102.44    3426.9567    9333.1737    -5906.217    3163.6453    4500.9111    999.43196            0   -14570.205   -2638.0611    10574.452   -22506.596    123.73777    3339.5565    49.062871     1.020105 
 1941000    14444.139    298.21502   -676.39026    119148.53    3466.2738    9314.1281   -5847.8543    3110.7347      4601.98    1039.2543            0   -14599.823   -2751.5894    10658.592   -22506.826    108.64559    3283.3024    49.207303    1.0111488 
 1942000    14451.372    298.59141   -32.509517    118401.53    3549.6039    9325.8841   -5776.2802    3154.9491     4623.967     1064.861            0   -14620.057   -2664.9729    10562.946    -22518.03    122.02607    3338.5782    49.104252    1.0175282 
 1943000    14458.701    299.15361   -293.36649    118201.12    3605.9028     9343.443   -5737.5402    3249.5812    4594.9023    1050.9239            0   -14632.948   -2662.7409    10549.356   -22519.562    115.22402    3366.4194    49.076532    1.0192534 
 1944000    14466.375    298.93445    10.341494    118582.53    3468.0432    9336.5981   -5868.5549    3204.1708    4582.5002    996.91263            0   -14652.139    -2729.327    10580.546   -22503.358    105.22003    3338.3849    49.129262     1.015975 
 1945000    14473.826    300.67136    153.45266    117746.52    3721.9532    9390.8469   -5668.8936    3216.2137    4630.7156    1066.9044            0   -14582.727   -2662.1217     10591.15   -22511.755    114.72056    3351.4129    49.013535    1.0231885 
 1946000    14481.214    293.72855   -150.15715    118171.89    3481.1026    9174.0026   -5692.9001    3245.4398    4644.9221    1014.7248            0   -14597.987   -2694.2974    10608.948   -22512.637    111.93642    3339.4171    49.072486    1.0195055 
 1947000    14488.518    298.07899    29.704717    118412.56     3547.355    9309.8794   -5762.5244    3125.2138    4653.1855    1017.6613            0   -14558.585   -2652.3371    10595.428   -22501.676    99.568703    3299.3051    49.105778    1.0174334 
 1948000     14495.73    298.69735    115.06937    117848.67    3622.9339    9329.1928   -5706.2589     3169.981    4702.5098    986.76257            0   -14565.512   -2696.1661    10635.124    -22504.47    143.29691    3327.7802    49.027705    1.0223017 
 1949000    14503.099    298.55163   -672.90313    117822.64    3539.1563    9324.6416   -5785.4853    3092.0977    4645.5499    1059.1657            0   -14582.299   -2690.0291    10614.358   -22506.628    108.88592    3308.5009    49.024094    1.0225275 
 1950000    14510.349    295.70901   -222.77256    119213.62    3540.2484    9235.8581   -5695.6098    3174.6832    4616.3141    1031.7791            0   -14518.386   -2681.5802    10660.881   -22497.687    110.46184    3332.6272    49.216262    1.0105967 
 1951000    14517.621    301.43271   -587.33412    118518.08    3683.3117     9414.626   -5731.3142     3184.924    4629.3111    1020.5237            0   -14566.073   -2642.3679    10569.691   -22493.396    113.36585    3346.9002     49.12036    1.0165275 
 1952000     14524.95    302.06753   -467.18294    117135.16    3549.7698    9434.4533   -5884.6835    3143.7624     4645.182    971.85311            0   -14645.481   -2710.8234    10560.656   -22495.314    129.45955    3320.9354    48.928559    1.0285288 
 1953000    14532.198    296.17011   -484.47177    118015.29    3489.3307    9250.2598    -5760.929     3159.129    4708.6768    965.57954            0   -14594.314   -2739.1353     10637.48   -22492.659    114.57367    3328.3724    49.050799    1.0208583 
 1954000    14539.701    295.58154    349.84697    117971.64    3586.4257    9231.8768   -5645.4512    3196.8292    4697.7284    1010.1713            0    -14550.18   -2586.9347    10546.121   -22509.366    119.28929    3362.8674    49.044752     1.021236 
 1955000    14546.876    303.17175    311.58987    117815.01    3668.8912    9468.9412   -5800.0501    3157.4353    4603.0478    989.57263            0   -14550.106   -2721.9893    10678.194   -22506.311    119.14876    3341.3395    49.023036    1.0225937 
 1956000    14554.067    300.16416    635.25758    118095.35    3766.3692    9375.0054   -5608.6361    3241.0751    4597.9994    1040.0401            0   -14487.751   -2602.2944     10618.17   -22503.626    109.08137    3364.6538    49.061889    1.0201662 
 1957000     14561.35    301.73101     4.226585    118295.35     3542.248     9423.943   -5881.6949    3148.9862     4548.197    1023.7147            0   -14602.593   -2687.2686    10591.995    -22507.32    134.11333    3321.6723    49.089569    1.0184415 
 1958000    14568.829    298.10705   -416.00642    118514.52    3615.3689    9310.7558   -5695.3869    3149.1734    4634.9568    1062.6624            0    -14542.18   -2680.9264      10642.4   -22503.653     136.6511     3326.357    49.119868     1.016558 
 1959000     14576.09    299.78191   -123.13596    117487.29    3496.6185    9363.0666   -5866.4481     3154.361    4557.0771    1044.3627            0   -14622.249   -2729.7768    10608.202   -22500.674    109.33428    3321.7323     48.97754    1.0254461 
 1960000    14583.641    296.00272     151.6658    118274.41    3421.3012    9245.0316   -5823.7304    3115.7168    4618.7372    1004.6187            0   -14562.803   -2692.3854    10628.266   -22498.684    114.83069    3295.7286    49.086673    1.0186218 
 1961000    14590.893    294.81695   -178.19592    118035.91    3440.8774    9207.9965   -5767.1191     3148.205    4631.2442    1023.2748            0   -14569.843   -2687.0377     10618.04   -22500.845    118.17713    3319.1977    49.053656      1.02068 
 1962000    14598.427    297.38284   -220.89884    117688.72    3587.6942    9288.1366   -5700.4424     3151.813    4685.3617    1077.3339            0   -14614.951   -2706.7176    10592.539   -22500.772    135.69812    3348.2575    49.005514     1.023691 
 1963000    14605.768    298.08585    -60.76593    117527.46    3434.3274    9310.0938   -5875.7664    3140.0518    4638.9349    1024.9523            0   -14679.705   -2760.4721    10581.872   -22501.105    106.45817    3310.7676    48.983121    1.0250956 
 1964000    14613.132    298.87993    -367.5676    118775.35    3603.2749    9334.8954   -5731.6205    3140.3753    4613.3237    1008.0871            0   -14493.407   -2629.5822    10641.082   -22504.906    119.23516    3342.4963    49.155876    1.0143257 
 1965000    14620.466    297.46855    455.18529    117200.22    3329.7873    9290.8139   -5961.0266    3043.5922    4605.3951    1031.4572            0   -14641.471   -2766.5807    10623.897   -22498.787    135.65796    3282.7267    48.937616    1.0279579 
 1966000    14627.946    302.47374    183.31355    117098.78     3587.259    9447.1404   -5859.8814    3130.6754    4581.9662    1027.1444            0   -14599.667   -2636.5938    10541.948   -22505.021     122.2645    3321.8137    48.923493    1.0288484 
 1967000    14635.237      301.449    421.17835    118905.07    3790.2062    9415.1347   -5624.9286    3185.4184    4668.3065    1055.3803            0   -14534.034   -2680.7538    10651.825   -22505.105    145.18743    3343.4548    49.173764    1.0132191 
 1968000    14642.408    299.08244    37.640631     118222.6    3577.2476    9341.2202   -5763.9726    3156.0376    4586.5949    1053.0396            0   -14559.645   -2641.7913    10590.893   -22508.746    112.37423    3318.3338    49.079504    1.0190682 
 1969000    14649.716    296.39714    208.40931    118825.92    3473.9995    9257.3503   -5783.3508    3132.6734    4597.6874    1052.8035            0   -14566.515   -2686.4906    10618.104   -22498.128     102.0386     3312.024    49.162851    1.0138941 
 1970000     14657.26    298.24025   -1073.8811    119305.67    3450.5126    9314.9163   -5864.4037    3054.7474    4578.2172    1036.8834            0   -14534.252   -2682.3888    10647.086   -22498.949    114.84569    3277.3385    49.228926     1.009817 
 1971000    14665.081    297.68978   -654.27676    118109.76    3404.7278    9297.7233   -5892.9955    3160.9174    4523.4236    1035.8606            0   -14613.197    -2737.372    10623.603   -22499.428     108.1678    3311.6124    49.063885    1.0200418 
 1972000    14672.549    297.11573    974.46347    118304.93    3472.6798    9279.7942   -5807.1144    3085.4985    4570.8827     1051.838            0   -14515.334   -2619.7584    10598.602   -22494.178    105.97053    3299.5658    49.090895     1.018359 
 1973000    14679.884    300.03986    75.697714    119319.58    3790.8288    9371.1233   -5580.2946    3169.9847    4660.7763    1052.1226            0   -14463.178   -2577.5784     10613.25    -22498.85    109.11125    3322.2781    49.230839    1.0096993 
 1974000    14687.233    301.04472   -423.77449    118548.87    3496.3429     9402.508   -5906.1651    3017.5568    4562.5665     1042.566            0   -14528.854   -2616.5383     10587.11   -22499.427     107.9722    3255.7021    49.124613    1.0162635 
 1975000    14694.436    300.98549    28.019783    117822.93     3682.165    9400.6579    -5718.493     3115.121    4675.7081     1052.474            0   -14561.796   -2721.4742    10653.111   -22493.433     129.5786    3301.0367    49.024136    1.0225249 
 1976000    14701.728     294.3184    -818.4959    118368.81    3497.9284    9192.4254    -5694.497    3194.5085    4610.9129    1009.1759            0   -14509.094   -2656.2515    10641.291   -22494.134    101.94632    3323.2666    49.099729    1.0178094 
 1977000    14709.104    300.16116    127.78687    118121.43     3616.618     9374.912    -5758.294    3116.7778    4634.9928    1089.6856            0    -14599.75   -2717.9666    10621.329   -22503.112    110.25682    3307.8142    49.065501     1.019941 
 1978000    14716.443    301.72332   -109.97493    118151.48    3504.5354    9423.7027   -5919.1672    3064.9571    4664.0809    1034.8707            0   -14683.076   -2766.2838    10586.223   -22503.015    127.16941    3310.0443     49.06966    1.0196816 
 1979000     14724.22    300.99339    -503.4367    118635.98    3716.7257    9400.9049   -5684.1792    3143.3642    4677.3574    1029.0091            0    -14533.91   -2659.6547    10629.883   -22504.138     119.9941    3320.9107    49.136642    1.0155173 
 1980000    14731.819    296.01656   -465.07395    117107.73    3310.6763     9245.464   -5934.7876    3133.5236    4600.7137    1032.6396            0   -14701.665    -2792.392    10601.493   -22510.765     105.8831    3302.2405    48.924739    1.0287697 
 1981000    14739.352    295.63678    950.41204     117307.3    3503.3806    9233.6021   -5730.2215    3173.2324    4660.3369    1021.9894            0    -14585.78   -2696.5686    10606.288   -22495.499    118.26404    3348.7549    48.952516    1.0270195 
 1982000    14746.632    297.96845   -183.18033    118189.38    3438.4129     9306.427    -5868.014    3101.3479    4568.9904    1074.9005            0   -14613.253   -2734.5159     10619.03   -22497.767      104.427    3297.1359    49.074907    1.0193546 
 1983000    14754.001    301.54038   -77.816169    117979.46     3605.099     9417.989     -5812.89    3176.3389    4603.6883    1016.6373            0   -14609.555   -2701.9705    10591.183   -22498.767    109.19614    3314.8252    49.045835    1.0211684 
 1984000     14761.41    297.82276    8.9580847    117578.06    3505.1353    9301.8766   -5796.7413    3155.8837    4571.9551    1002.9476            0   -14527.528    -2661.164    10626.676    -22493.04    111.93501    3316.7523    48.990149    1.0246545 
 1985000    14769.055    294.74512     225.3172    117798.91    3363.5725     9205.753   -5842.1805    3112.6457    4611.3456     1022.811            0   -14588.983   -2738.4718     10652.69   -22503.201    107.92837     3345.188    49.020803    1.0227335 
 1986000    14776.303    296.75862    -731.8997    118342.85    3475.2507    9268.6406     -5793.39    3151.7386    4651.1657    1013.9131            0   -14610.207   -2719.9625    10603.408   -22493.653    117.63024    3334.7446    49.096139    1.0180327 
 1987000    14783.909      302.456    -193.1538    118651.23    3792.3262    9446.5863   -5654.2601    3188.4045    4708.9581    1018.1852            0   -14569.808   -2670.2095    10594.286   -22493.884    102.50521    3349.7164    49.138747    1.0153868 
 1988000    14791.444    298.37271   -480.89332    117493.44    3506.0056    9319.0531   -5813.0475    3177.3131    4531.1944    1026.3236            0   -14547.879   -2654.6477    10600.662   -22493.893    127.25552    3309.8078    48.978394    1.0253925 
 1989000    14799.103    300.88859   -264.77028    117693.79    3587.3029    9397.6317   -5810.3287    3181.6299     4638.551    1013.0333            0   -14643.543   -2682.1804    10532.476   -22493.839    96.528167    3332.8081    49.006217     1.023647 
 1990000    14806.427    297.59521   -358.08598     118125.6    3394.4305    9294.7696   -5900.3391    3106.6035    4629.0308    1005.0008            0   -14640.974   -2705.5376    10571.623    -22507.06    114.34495    3297.3336    49.066078     1.019905 
 1991000    14814.182    294.10062   -766.34039       118266     3424.464    9185.6236   -5761.1595    3109.4036    4637.2274    1058.0576            0   -14565.848   -2675.5395    10597.443   -22487.752    131.37229    3327.3151     49.08551    1.0186942 
 1992000    14821.823     298.8911   -1.5055433    117393.98    3551.6151    9335.2442   -5783.6291     3129.629    4657.6329    1077.7356            0   -14648.627   -2687.7669    10533.908   -22494.768    105.63711    3302.4076     48.96457    1.0262612 
 1993000    14829.325      300.444   -448.97316    117904.01    3647.7271    9383.7456   -5736.0185    3143.6295    4682.9044    1051.5414            0   -14614.094   -2640.5047    10521.259   -22494.848    118.95795    3311.0334    49.035378    1.0218218 
 1994000     14837.05    302.21561    334.61625    118450.03    3625.5075    9439.0782   -5813.5706    3066.2117    4627.8248    1026.8889            0   -14534.496   -2637.0931    10597.279   -22494.682    120.38249    3294.1842    49.110957    1.0171115 
 1995000    14844.512    293.33125    -293.7499    117139.05    3271.5137    9161.5938   -5890.0802    3060.6939    4673.0905    1051.5611            0   -14675.426   -2756.7371    10584.915   -22503.603    121.11955    3283.0119      48.9291    1.0284947 
 1996000    14851.994    299.68615    24.086375    118516.64    3587.8698    9360.0759   -5772.2061     3121.684     4602.633    1049.7315            0   -14546.255   -2692.4731    10639.713   -22493.495    104.67212     3298.076     49.12016    1.0165399 
 1997000     14859.41    300.70428    823.58195    117924.35    3577.1514    9391.8751   -5814.7237    3079.4787     4662.814    1020.0677            0   -14577.084   -2621.9056    10552.251    -22507.43    113.15753    3316.7596    49.038198    1.0216455 
 1998000    14866.843     296.6385    -434.1193    118489.66    3433.2886    9264.8887   -5831.6001    3165.1824    4567.1671    1075.1767            0   -14639.126   -2672.6514    10538.574   -22505.049    98.135477    3296.0298    49.116432    1.0167714 
 1999000    14874.154    300.10432    4.2913864    118278.93    3498.2618    9373.1364   -5874.8747    3169.8162    4499.8937    1041.4347            0   -14586.019   -2644.3335    10555.517   -22497.202    105.87236    3315.3485    49.087299    1.0185828 
 2000000     14881.38    298.32787    478.54039    118967.35    3604.6168    9317.6528    -5713.036    3137.3018    4598.1541    1032.7239            0   -14481.216   -2566.8883    10592.318   -22506.646    117.16788    3322.5479    49.182349    1.0126887 
Loop time of 14881.4 on 28 procs for 2000000 steps with 10479 atoms

Performance: 11.612 ns/day, 2.067 hours/ns, 134.396 timesteps/s
99.8% CPU use with 28 MPI tasks x 1 OpenMP threads

MPI task timing breakdown:
Section |  min time  |  avg time  |  max time  |%varavg| %total
---------------------------------------------------------------
Pair    | 10089      | 10719      | 11558      | 338.6 | 72.03
Bond    | 273.53     | 279.05     | 284.04     |  19.4 |  1.88
Kspace  | 1501.7     | 2360.5     | 2993       | 731.6 | 15.86
Neigh   | 598.46     | 599.61     | 600.75     |   2.7 |  4.03
Comm    | 476.44     | 498.25     | 517.05     |  59.5 |  3.35
Output  | 108.16     | 122.24     | 139.03     |  77.9 |  0.82
Modify  | 165.64     | 214.18     | 248.08     | 121.6 |  1.44
Other   |            | 88.45      |            |       |  0.59

Nlocal:    374.25 ave 404 max 350 min
Histogram: 5 1 5 2 3 2 5 1 1 3
Nghost:    8129.61 ave 8177 max 8061 min
Histogram: 3 2 0 1 3 3 6 2 3 5
Neighs:    189360 ave 206438 max 170312 min
Histogram: 2 0 4 4 2 5 4 2 2 3

Total # of neighbors = 5302076
Ave neighs/atom = 505.972
Ave special neighs/atom = 7.787
Neighbor list builds = 81495
Dangerous builds = 0
unfix 				1

write_restart	    restart.${simname}
write_restart	    restart.npt
PPPM initialization ...
  using 12-bit tables for long-range coulomb (src/kspace.cpp:332)
  G vector (1/distance) = 0.194289
  grid = 15 15 15
  stencil order = 5
  estimated absolute RMS force accuracy = 0.0210981
  estimated relative force accuracy = 6.35363e-05
  using double precision MKL FFT
  3d grid and FFT values/proc = 1352 192
write_data 		    data.${sysname}_${simname}
write_data 		    data.mixture_${simname}
write_data 		    data.mixture_npt
PPPM initialization ...
  using 12-bit tables for long-range coulomb (src/kspace.cpp:332)
  G vector (1/distance) = 0.194289
  grid = 15 15 15
  stencil order = 5
  estimated absolute RMS force accuracy = 0.0210981
  estimated relative force accuracy = 6.35363e-05
  using double precision MKL FFT
  3d grid and FFT values/proc = 1352 192
Total wall time: 4:08:01
