
# Force Fields
neighbor			2.0 bin
neigh_modify		delay 0 every 1 check yes
special_bonds		lj/coul 0.0 0.0 0.5
bond_style		    harmonic
angle_style		    harmonic
dihedral_style      fourier
improper_style      cvff
pair_style		    lj/cut/coul/long 12.0
kspace_style        pppm 1.0e-4

# Atom Definitions
read_restart		../min/${rname}
read_restart		../min/restart.min
  restoring atom style full from restart
  orthogonal box = (-0.25 -0.25 -0.25) to (50.25 50.25 50.25)
  2 by 2 by 7 MPI processor grid
  restoring pair style lj/cut/coul/long from restart
  restoring bond style harmonic from restart
  restoring angle style harmonic from restart
  restoring dihedral style fourier from restart
  restoring improper style cvff from restart
  10479 atoms
  9789 bonds
  17016 angles
  13995 dihedrals
  4 = max # of 1-2 neighbors
  6 = max # of 1-3 neighbors
  12 = max # of 1-4 neighbors
  14 = max # of special neighbors
  special bonds CPU = 0.00159478 secs
  read_restart CPU = 0.00994992 secs

# Settings
velocity            all create 298.15 150000
fix 			    1 all npt temp 298.15 298.15 100.0 iso 1.0 1.0 1000.0
thermo			    1000
thermo_style 		custom step cpu temp press vol etotal ke pe ebond eangle edihed eimp epair evdwl ecoul elong fmax fnorm lx density
timestep 			1.0
reset_timestep		0
dump 			    1 all custom 50000 dump.nvt.*.dump id mol type mass q x y z xu yu zu ix iy iz vx vy vz fx fy fz
restart             100 restart.${simname}_r restart.${simname}_r
restart             100 restart.npt_r restart.${simname}_r
restart             100 restart.npt_r restart.npt_r
run 				2000000
PPPM initialization ...
  using 12-bit tables for long-range coulomb (src/kspace.cpp:332)
  G vector (1/distance) = 0.192254
  grid = 15 15 15
  stencil order = 5
  estimated absolute RMS force accuracy = 0.0158916
  estimated relative force accuracy = 4.78571e-05
  using double precision MKL FFT
  3d grid and FFT values/proc = 1352 192
Neighbor list info ...
  update every 1 steps, delay 0 steps, check yes
  max neighbors/atom: 2000, page size: 100000
  master list distance cutoff = 14
  ghost atom cutoff = 14
  binsize = 7, bins = 8 8 8
  1 neighbor lists, perpetual/occasional/extra = 1 0 0
  (1) pair lj/cut/coul/long, perpetual
      attributes: half, newton on
      pair build: half/bin/newton
      stencil: half/bin/3d/newton
      bin: standard
Per MPI rank memory allocation (min/avg/max) = 14.08 | 14.25 | 14.54 Mbytes
Step CPU Temp Press Volume TotEng KinEng PotEng E_bond E_angle E_dihed E_impro E_pair E_vdwl E_coul E_long Fmax Fnorm Lx Density 
       0            0       298.15    2130.5085    128787.62    661.85524    9312.0974   -8650.2422    92.287175    408.52296    198.05786            0   -9349.1102   -4189.0752    10478.892   -15638.927    10.160793     44.05842         50.5   0.93546946 
    1000    7.3194096    300.66334    1516.4224    137089.92    10473.562    9390.5962    1082.9658     3345.771    4437.8084    948.45557            0   -7649.0691   -2715.0538    10716.907   -15650.923    108.16925    3414.4735    51.562644   0.87881651 
    2000    14.010125    296.43278    254.31891    135311.41    9664.1471    9258.4635    405.68365    3013.4853    4357.2663    953.68377            0   -7918.7518   -2719.9567    10496.852   -15695.647    111.71905    3264.2542    51.338693   0.89036756 
    3000    20.898243    298.29285     606.4574    131871.01    9612.9604    9316.5589    296.40152    3005.0427    4472.2747    922.46082            0   -8103.3766   -2747.4202    10371.337   -15727.293    116.50793    3263.5635    50.899843   0.91359648 
    4000     27.66935    299.13081    -1019.786    129619.83    9548.3378    9342.7309    205.60684     3075.004    4480.2365    922.40772            0   -8272.0414   -2810.5634    10263.961   -15725.439    116.31137    3272.9161    50.608541    0.9294634 
    5000    34.714415    299.88602    639.72244    127425.01    9336.4955    9366.3185   -29.823013    3001.5691    4513.4083    878.76613            0   -8423.5665   -2848.4835    10170.546   -15745.629    116.91656    3260.0406    50.321266   0.94547285 
    6000    41.330317     299.8862   -374.73363    127836.79    9432.4958    9366.3239    66.171903    3083.9088    4392.3808     936.6619            0   -8346.7796   -2721.8975    10120.676   -15745.558    111.99069    3288.4827    50.375413   0.94242734 
    7000    48.155929    298.87727    94.506502    126165.11    9287.0599    9334.8123   -47.752328    3048.2012    4459.9867    936.90235            0   -8492.8426    -2802.887    10065.644     -15755.6    104.56283    3282.8276    50.154867    0.9549145 
    8000     54.97866    299.76126   -459.56043    126348.82    9228.0092    9362.4219    -134.4127     3080.281    4476.0025    891.44975            0   -8582.1459   -2895.7339    10069.951   -15756.363    103.25799    3285.6092      50.1792     0.953526 
    9000     61.67931    297.85619   -62.872223    124747.21     9276.066    9302.9209   -26.854928    3074.9063    4603.9781    893.40824            0   -8599.1476   -2915.2428    10077.344   -15761.249    125.94404    3294.4132    49.966271   0.96576823 
   10000    68.329077     300.7649   -191.96145    124636.58    9297.3797    9393.7682   -96.388502    3026.8475    4522.9062    918.34589            0   -8564.4881   -2892.9607    10083.107   -15754.634    101.54988    3282.0087    49.951497   0.96662543 
   11000     74.97248    297.23682    316.46446    124092.45    9226.7672    9283.5761   -56.808887    3094.6247    4594.6517    921.18219            0   -8667.2675   -2880.9819    9983.5145     -15769.8    124.96138    3317.6885    49.878699   0.97086398 
   12000    81.882148    300.36871   -507.95405    123143.89    9261.3609    9381.3943   -120.03344    3064.6247    4591.6563     918.1757            0   -8694.4901   -2956.8341     10027.02   -15764.676    107.37851    3288.6264    49.751283   0.97834243 
   13000    88.756087    296.69432   -682.01072    123226.21    9042.2807    9266.6321   -224.35141    3067.6742    4524.3534    883.30154            0   -8699.6805   -2899.5586    9962.3081    -15762.43    111.00524    3281.8193    49.762367   0.97768881 
   14000    95.704163    297.40999   -119.72981    122500.08    9154.9942    9288.9847   -133.99057    3085.0032    4610.2604    899.32007            0   -8728.5742   -2957.5023    9989.7385    -15760.81    116.70255    3317.5835    49.664431   0.98348414 
   15000    102.50966    300.46879   -158.34537    123221.45    9237.2194      9384.52   -147.30066    3037.6595    4624.3087    883.65629            0   -8692.9251   -2926.4149    9991.8726   -15758.383    107.93922    3301.1451    49.761727   0.97772658 
   16000    109.34325    298.10408   -1001.1166    123964.63    9125.9009    9310.6631   -184.76221    3047.4136    4550.8258    921.71311            0   -8704.7147   -2891.0528    9949.5778    -15763.24    100.21154    3266.9889    49.861568   0.97186502 
   17000    116.27209     295.2055   -177.65399    120999.57    8828.9555    9220.1319   -391.17644    3040.4652    4529.9007    896.68084            0   -8858.2232   -3079.5755     9981.068   -15759.716    115.82705    3268.3559    49.460815   0.99568035 
   18000    123.12014    299.36251   -146.58446    123240.76    9044.9853    9349.9676   -304.98231    2964.5532    4558.8986    894.30893            0    -8722.743   -2969.4917    10006.186   -15759.437    126.33093    3257.2547    49.764325   0.97757342 
   19000    130.04163     296.5106    349.27144    123889.69    9002.6203     9260.894   -258.27374    3087.1468    4475.2328    870.23762            0    -8690.891    -2914.998    9991.5639   -15767.457    115.06578    3274.8458    49.851518    0.9724529 
   20000    136.73615    300.28579    10.842576    123942.19    9085.1256    9378.8044   -293.67877    3025.8745    4564.2818    863.67314            0   -8747.5082   -2967.8019    9981.4365   -15761.143    138.56178    3268.1815    49.858559   0.97204099 
   21000    143.32543     297.1826    312.87124    124022.16     9088.143    9281.8825   -193.73955    3052.8488    4593.9135    882.77639            0   -8723.2782   -2891.6246    9930.1345   -15761.788    135.31663    3289.9051    49.869281   0.97141418 
   22000    150.03331    298.62193    1008.2322    121792.49    9036.9594    9326.8372   -289.87776    3079.7806    4557.6697    865.28441            0   -8792.6125   -2955.1605    9927.1753   -15764.627    131.58711    3307.8918    49.568621   0.98919799 
   23000    157.16215     297.2085    170.28106    121929.94    8946.0732    9282.6915   -336.61826    3094.6987    4511.3588    890.63288            0   -8833.3086   -2987.4069    9910.5037   -15756.405    106.37643    3291.5889    49.587261   0.98808289 
   24000     163.8398    297.23324    833.64145       122132    8819.0477    9283.4642   -464.41644    3019.5363    4514.1967    856.70982            0   -8854.8593   -2985.3128    9891.1002   -15760.647    107.35113    3272.1477    49.614638   0.98644816 
   25000    170.71678    297.97199    76.308232    122514.21    9074.0466    9306.5376    -232.4909    3034.3665    4657.5145    866.29203            0   -8790.6639   -2990.7723    9964.9145   -15764.806    114.81996    3299.7682     49.66634   0.98337073 
   26000    177.58587    296.38974   -125.35189    121617.02    8770.4126    9257.1194   -486.70675    2989.6812    4504.2881    868.03043            0   -8848.7065    -2965.144    9883.4113   -15766.974    103.60412    3273.0668    49.544804   0.99062525 
   27000    184.41428    299.26909    922.74769    120476.69    8975.9369    9347.0499   -371.11305    3071.2032    4570.4577    857.90833            0   -8870.6823     -2988.52    9882.7436   -15764.906    110.17063    3308.6412    49.389468    1.0000016 
   28000    191.22309    298.29387    14.805786    120925.59    8850.4051    9316.5909   -466.18577    3084.4265    4465.3978    865.16749            0   -8881.1775   -3064.8253    9945.1293   -15761.482    104.63248    3297.3613    49.450733   0.99628949 
   29000    198.05133    299.68876   -94.537043       121659     9043.539    9360.1574   -316.61838    3132.0872    4580.0733     864.2414            0   -8893.0203   -3051.9282    9925.3766   -15766.469       107.96    3316.8747    49.550504   0.99028345 
   30000    204.87856    294.44404    578.84891    121515.09    8848.3134    9196.3495   -348.03607    3047.9272     4629.287    859.73715            0   -8884.9874   -3030.6707    9913.3772   -15767.694    106.15868    3278.7555    49.530959    0.9914562 
   31000    211.59728    299.86799    79.384962     121946.1    9065.6143    9365.7552   -300.14091    3009.8134    4652.7391     868.5435            0   -8831.2369      -2967.2    9902.3513   -15766.388    111.52182    3281.8521    49.589451   0.98795198 
   32000    218.41419      301.677   -129.15199    121392.95    9105.4085    9422.2561   -316.84754    3057.4187    4601.4058    891.39515            0   -8867.0672   -3045.1487    9943.9325   -15765.851    99.869879    3288.3384    49.514359   0.99245374 
   33000    225.23053    297.29215    513.25158    122623.25    9033.1157    9285.3041   -252.18845    3084.2798    4641.7961    879.23302            0   -8857.4974   -2968.2184    9870.6747   -15759.954    105.50505    3298.9401     49.68107   0.98249631 
   34000    232.06399     302.0296   -183.84544    121518.16    9130.1466    9433.2686   -303.12198       3174.4    4528.6849    876.22564            0   -8882.4325     -3030.91    9915.4913   -15767.014    123.41165    3348.3544    49.531376   0.99143114 
   35000    238.75357    299.08172     816.2542    122207.68     8908.976    9341.1977   -432.22174    3029.8639    4570.8351    804.99224            0   -8837.9129   -2996.2707    9919.9062   -15761.548    120.57052    3306.1026    49.624884   0.98583727 
   36000    245.54199    297.58724   -58.815791    120653.99    9007.5696    9294.5207    -286.9511     3091.768    4690.2578    897.94344            0   -8966.9204   -3049.7378    9853.1142   -15770.297    114.73279     3309.282    49.413683   0.99853217 
   37000    252.43602    295.34228    -747.7342    121735.05    8866.0416    9224.4042   -358.36256    3123.1613    4587.1958    880.35707            0   -8949.0767   -3024.9343    9841.5593   -15765.702    100.10077    3326.3155    49.560827   0.98966476 
   38000    259.24882    298.26306    351.19615    122285.75    9131.4323    9315.6285   -184.19615    3065.4455     4739.546    877.61241            0   -8866.8001   -2995.5865    9889.1551   -15760.369    121.29091    3322.4316    49.635449   0.98520791 
   39000    266.13603     299.3081    424.68787    121483.06    8947.8978    9348.2682   -400.37042    3075.4326    4563.3423    869.05946            0   -8908.2047    -3012.739    9869.8046    -15765.27     112.7951    3310.3007    49.526607   0.99171759 
   40000    273.38208    296.50822     342.8035    121259.93     8820.971    9260.8199    -439.8489    3069.4135    4518.5688    857.61108            0   -8885.4423   -3015.3102    9892.2732   -15762.405    115.47983    3291.9139    49.496266    0.9935425 
   41000    280.30112    297.67666    357.76436    121734.17    9003.7244    9297.3135   -293.58908    3152.6604    4607.4649    840.09535            0   -8893.8097   -3012.8702    9885.6768   -15766.616    116.75884    3346.8046    49.560708   0.98967192 
   42000    287.20507    294.60298    798.27249    121013.49    8792.8515    9201.3134   -408.46188    3098.3447    4547.6914    885.43538            0   -8939.9333   -3027.1503    9858.8595   -15771.643    103.69174    3317.4218    49.462712   0.99556581 
   43000    294.22458    297.19532     562.6155    121752.59    8883.5237    9282.2801   -398.75635    3054.0898    4606.8369    883.28234            0   -8942.9655   -3034.3646    9857.3062   -15765.907    112.89125    3305.9169    49.563208   0.98952216 
   44000    301.01458    296.82653    383.36956    120895.49    8975.6211    9270.7615   -295.14033    3136.7026    4689.9887     861.0788            0   -8982.9105    -3054.143    9843.8862   -15772.654    124.91522    3348.2935     49.44663   0.99653753 
   45000    308.05712    297.04988    531.81778    121374.28    8966.0191    9277.7373   -311.71827    3128.7598    4632.4897    875.43671            0   -8948.4045   -3043.4444    9864.3596    -15769.32    126.14712    3322.7789    49.511819   0.99260644 
   46000    314.86203    298.91246    469.89204    120610.37    8754.8384    9335.9112   -581.07284    3062.8416    4544.9809    832.83052            0   -9021.7259   -3056.5932    9803.4402   -15768.573    109.60469    3303.0583    49.407728   0.99889331 
   47000    321.71999    299.55553    698.26686    120594.91     8946.724    9355.9963   -409.27234    3083.2135    4607.5771     886.4816            0   -8986.5446   -3068.5081    9848.5116   -15766.548    120.34933    3299.0179    49.405616   0.99902137 
   48000    328.71821    294.28439    92.578945    120943.89    8816.6903     9191.363   -374.67267    3139.2307    4605.5256     905.0651            0    -9024.494   -3057.4223     9800.534   -15767.606    111.77703    3329.0817    49.453228   0.99613867 
   49000    335.64153    298.01626   -751.60233    120347.21    9026.5112    9307.9204   -281.40924    3188.6483    4602.6364    869.46705            0   -8942.1609   -3042.6173    9871.6023   -15771.146    147.32339    3364.2377    49.371768    1.0010775 
   50000    412.57828    297.58984   -98.374265     120216.2    8806.4754    9294.6021   -488.12663    3140.4524    4487.7449    857.70322            0   -8974.0271   -3036.2021    9830.4143   -15768.239    126.75881    3331.4807    49.353846    1.0021685 
   51000    419.66836    297.72013   -947.44725     120470.3    8720.4344    9298.6713   -578.23691    3167.7983    4433.9363    857.89094            0   -9037.8625   -3078.8622     9810.783   -15769.783    113.61454    3311.0214    49.388595    1.0000547 
   52000    426.58767    301.05279   -406.38121    120924.95    8830.1813      9402.76    -572.5787    3127.5147    4447.3465    875.93123            0   -9023.3712   -3047.7256    9799.1157   -15774.761    106.76517    3316.2987    49.450646   0.99629473 
   53000    433.60162     299.1626    258.92012    120722.31    8998.3917    9343.7237   -345.33198    3121.1225    4614.2908    837.27037            0   -8918.0157   -3075.4026    9922.5256   -15765.139    119.79163    3333.3446    49.423008   0.99796708 
   54000     440.8176     300.2755    -610.1924    120445.29    8998.9588    9378.4831   -379.52429    3127.0145     4662.289    880.17184            0   -9048.9997   -3106.3587    9826.5396   -15769.181    99.582022    3304.7584    49.385176    1.0002623 
   55000    448.08215    296.11846   -417.32304    120674.54    8763.1344    9248.6466   -485.51218    3136.2363     4576.893    857.88915            0   -9056.5306   -3060.4664    9782.5892   -15778.653    135.35278    3340.5972    49.416489   0.99836208 
   56000    455.15269    302.15955   -670.42371    120768.94    8988.6341    9437.3274   -448.69327    3076.1391    4575.7068     869.7094            0   -8970.2486   -3044.5286    9844.7541   -15770.474    123.16176    3309.0752    49.429371   0.99758174 
   57000    462.12761    295.49938   -40.912085    120641.65    8722.8864    9229.3109   -506.42448    3045.0931    4557.4704    883.71116            0   -8992.6992   -3053.9721    9835.4952   -15774.222     132.0454    3307.8702    49.411999   0.99863426 
   58000    469.10007    299.99489    74.546428    120647.93    8974.5087    9369.7186    -395.2099    3106.4135    4633.9403    883.80527            0    -9019.369   -3127.3873    9884.9645   -15776.946    114.64512    3313.6242    49.412856   0.99858236 
   59000    475.97068    296.61963   -27.534281    120704.01    8716.6972    9264.2996   -547.60233    3029.5967    4583.5431    849.37252            0   -9010.1147   -3078.3305    9833.7669   -15765.551    126.41646    3281.1943    49.420511   0.99811835 
   60000    483.13286    297.68997   -681.26285    120259.54    8970.8947    9297.7294   -326.83472    3135.6199    4699.2891    878.76791            0   -9040.5116   -3079.7351    9821.7845   -15782.561     133.3432    3338.8666    49.359775    1.0018074 
   61000    490.06899    299.67486   -289.81977    121120.23    8923.6423    9359.7232   -436.08088    3065.4497    4584.4415    882.96686            0    -8968.939   -3080.7607    9887.6326   -15775.811    120.29418    3299.2722    49.477251    0.9946884 
   62000    497.17817    299.51965    -156.4681    119671.69    8980.2654    9354.8756   -374.61019    3090.6045     4645.856    901.56728            0    -9012.638   -3115.7108    9876.9369   -15773.864    101.41645    3344.5712    49.279218    1.0067284 
   63000    504.37319       298.49   -90.460228    120934.15    8915.8198    9322.7167   -406.89688    3148.4299    4513.4462    875.67978            0   -8944.4528   -3018.6701    9849.6828   -15775.466    116.39957    3322.3507      49.4519   0.99621896 
   64000    511.49137    297.25676   -75.366651     120286.5    8748.0234     9284.199    -536.1756    3095.2271    4548.4078    858.73726            0   -9038.5477   -3073.9884    9811.1684   -15775.728    109.79103     3304.638    49.363464    1.0015828 
   65000    518.83861     298.0962    35.974707    120975.57    8978.2298    9310.4172   -332.18734    3177.4514    4611.0516    855.81426            0   -8976.5047   -3094.8859    9888.8943   -15770.513    110.62648    3364.2031    49.457545   0.99587787 
   66000    525.83756    297.89249    601.39723    121882.56    8855.3211    9304.0545   -448.73335    3064.4703     4601.425    857.25599            0   -8971.8846   -3074.4166    9879.3099   -15776.778    108.51592    3337.0227    49.580837   0.98846704 
   67000    532.63078    297.55426   -366.50892     120846.5    8811.6032    9293.4908   -481.88758    3083.7212    4595.2641    830.94686            0   -8991.8198   -3102.4598    9888.6112   -15777.971    114.12402    3320.8666    49.439951   0.99694147 
   68000    539.48831    298.93329     541.6622    121357.76    8785.6925     9336.562    -550.8695    3071.0143    4526.5541    848.69359            0   -8997.1316    -3004.009    9787.2808   -15780.403    112.03046    3297.6419    49.509574    0.9927415 
   69000    546.24689    298.43261    650.93487    121458.61    8920.6407    9320.9241   -400.28342    3073.0518    4615.7445    864.10632            0    -8953.186   -2990.4203    9809.5683   -15772.334    104.91693    3313.4579    49.523285   0.99191721 
   70000    553.04434    298.92902    235.31898    121399.52    8902.7003    9336.4284   -433.72809    3049.5302    4635.5058    860.86419            0   -8979.6283   -3015.6407    9804.5753   -15768.563    120.34976    3301.5826    49.515251   0.99240008 
   71000    559.98769    295.56354   -269.42507    121732.19    8843.8833    9231.3148   -387.43147     3120.416    4596.1368     849.3322            0   -8953.3165   -3087.5987    9904.9417   -15770.659    125.96872    3301.6882    49.560439   0.98968799 
   72000    566.89931    301.59564    127.52681     120703.5    8893.1176    9419.7148   -526.59717    3053.7535    4551.5213    851.05616            0   -8982.9282   -3058.8866     9845.886   -15769.928    109.81209    3319.7289    49.420442   0.99812255 
   73000    573.71815    297.25201    175.15214    120253.89    8834.1979    9284.0504   -449.85245    3145.7635    4571.9054     867.3632            0   -9034.8846   -3058.8596    9792.3072   -15768.332    102.60714    3307.9305    49.359003    1.0018544 
   74000    580.52267    299.10384    390.55475    121726.34    8909.3183    9341.8888   -432.57045    3106.0656    4599.8016    891.34085            0   -9029.7784   -3078.2119    9827.4846   -15779.051     101.5896    3300.8631    49.559645   0.98973559 
   75000     587.4425    298.25898    -433.9594    121228.09    8933.1655    9315.5013   -382.33575    3077.7382    4633.6722    882.75607            0   -8976.5022   -3084.7763    9871.4689   -15763.195    116.95946    3317.4301    49.491934   0.99380338 
   76000    594.46977    298.06473   -599.57434    120330.94    8836.5104    9309.4341   -472.92364    3145.5228    4590.2673    886.16271            0   -9094.8765   -3161.5506    9842.2178   -15775.544    102.35327    3349.1134    49.369543    1.0012129 
   77000    601.51937    300.91783   -86.149407    121261.36    8969.8156     9398.545   -428.72934    3075.8506    4667.4386    852.60432            0   -9024.6229   -3043.7287    9802.9129   -15783.807    133.12167    3322.2162    49.496461   0.99353072 
   78000    608.47818    298.52453   -948.72605    121650.45    8941.3333     9323.795   -382.46168    3160.8425    4575.8018    891.33263            0   -9010.4387    -3054.848    9816.3032   -15771.894    109.41406    3341.7431    49.549343   0.99035303 
   79000    615.37623    296.15561   -1205.7119    121178.07       9084.8    9249.8069   -165.00689    3177.5184    4757.9278    898.28465            0   -8998.7377   -3079.6427    9853.3788   -15772.474    115.30774    3377.4157    49.485126   0.99421362 
   80000    622.30527    299.81642   -905.99889     121054.8    8947.3954    9364.1444   -416.74905    3160.1282    4574.2648    843.03107            0   -8994.1731   -3021.0457    9799.5548   -15772.682    119.38263    3339.8899     49.46834   0.99522605 
   81000    629.23662      296.829    560.47023    121166.98    8834.7469    9270.8388   -436.09191    3091.6441    4513.3657    881.11675            0   -8922.2185   -3009.9761    9854.3381   -15766.581    103.98099    3297.8791    49.483616   0.99430462 
   82000    636.28815    299.82023    440.52298    121395.77    8915.8941    9364.2637   -448.36956    3057.0368    4607.4583    871.27923            0   -8984.1438   -3025.0019    9815.6058   -15774.748    128.16249    3298.9279    49.514742   0.99243071 
   83000    643.10896    300.70802   -254.01012    121665.62    9083.9375     9391.992    -308.0545    3136.5632     4616.253    879.45771            0   -8940.3284   -3017.9979    9846.0983   -15768.429    132.76753    3351.3482    49.551403   0.99022954 
   84000    649.88017    297.87048   -263.30529    121583.13    8858.4416    9303.3671   -444.92554    3149.3149    4547.2213    843.69658            0   -8985.1584   -3062.7483    9841.5814   -15763.991     119.6763    3334.9754    49.540202   0.99090134 
   85000    656.64289    295.19888    404.40995    122037.16    8794.6763    9219.9254   -425.24908    3105.5886    4555.5417    873.06239            0   -8959.4417   -3020.9094    9828.8991   -15767.431    99.683645    3309.3788    49.601792   0.98721478 
   86000    663.57779    299.99745    100.90736    120513.84    8836.8881    9369.7986   -532.91049    3100.3101    4592.7404    842.37898            0     -9068.34   -3086.9591     9786.729    -15768.11    121.67677    3309.8836    49.394543   0.99969338 
   87000    670.43583    297.48714    -246.7225    121461.55    8768.3123    9291.3944   -523.08203    3051.5774    4567.3489    843.59477            0   -8985.6031    -3046.538    9827.2165   -15766.282    92.005031    3296.0173    49.523684   0.99189321 
   88000    677.49921    298.03623   -1354.1313     121371.7    8815.4241     9308.544   -493.11989    3133.7847    4499.4217    879.48612            0   -9005.8124    -3106.448    9864.8725   -15764.237     108.3202    3313.4393    49.511469   0.99262754 
   89000    684.55999    299.11142   -582.50413    121927.79    9035.3526    9342.1253   -306.77272    3219.5531    4581.2808     869.5038            0   -8977.1104   -3072.8834    9867.1644   -15771.392    100.67383    3355.1399     49.58697    0.9881003 
   90000    691.41607    298.57833    411.31557    121333.22    8930.8868    9325.4753   -394.58849    3172.0435    4565.3729    869.36484            0   -9001.3697   -3107.8288    9878.2091    -15771.75    119.06359    3348.9732    49.506236   0.99294235 
   91000    698.23279    294.90343    212.25164    120876.18    8764.7661    9210.6976   -445.93147    3134.8544     4584.792      867.419            0   -9032.9969     -3138.83      9871.28   -15765.447    119.61413    3322.4206    49.443998   0.99669668 
   92000    704.98811    301.68013   -192.11813    121384.55    8978.4134    9422.3537   -443.94031    3155.7089    4547.7741    852.11791            0   -8999.5412   -3087.6715    9863.2814   -15775.151    113.68373    3322.2244    49.513216   0.99252247 
   93000     711.9342    298.78891   -445.23958    121051.33    8832.2352    9332.0524    -499.8172     3170.743    4471.2147    865.95126            0   -9007.7261   -3028.2625      9789.74   -15769.204    99.191576    3319.6936    49.467868   0.99525455 
   94000    718.83477    294.24851    296.70304    120719.04     8785.655    9190.2426   -404.58757    3111.6124    4620.6837    923.98303            0   -9060.8666    -3122.708     9829.923   -15768.082    107.49962    3307.1575    49.422562   0.99799413 
   95000    725.75868    300.48104   -29.035342    120507.46    8745.7518    9384.9026   -639.15086     3055.519     4514.843    819.56353            0   -9029.0763   -3066.8846    9806.7855   -15768.977    103.59596    3289.8388    49.393672   0.99974632 
   96000     732.7444    298.28621   -1373.0249    121263.29    8965.8965    9316.3515   -350.45507    3246.7698    4589.5147    869.52223            0   -9056.2618   -3102.0194    9818.3807   -15772.623    111.82396    3356.1221    49.496724    0.9935149 
   97000    739.91435    298.10579    1034.3735    121067.91    8794.5339    9310.7166   -516.18268    3030.6873    4588.0959    873.18934            0   -9008.1552   -3036.0572    9802.8883   -15774.986    101.16794    3304.4849    49.470125   0.99511831 
   98000    747.10178    297.78004   -351.91807    122444.34    8923.7878    9300.5426    -376.7548    3128.7373    4510.0958    858.82516            0    -8874.413   -3031.3903    9936.4104   -15779.433    106.44142     3337.845    49.656896   0.98393191 
   99000    754.46147    300.47424    169.99114    121422.19     8970.925    9384.6902   -413.76529    3040.2748    4668.2276    894.27827            0   -9016.5459   -3032.9507    9781.6797   -15765.275    106.28789    3273.1813    49.518334   0.99221476 
  100000     761.5136    297.53166    817.19503    121438.85    8813.2604    9292.7848    -479.5245    3130.8521    4481.9303    846.78618            0   -8939.0931   -3044.1648    9874.7885   -15769.717    131.05757    3304.3463    49.520598   0.99207864 
  101000    768.48723    303.32895   -707.02771    122359.96    9270.9639    9473.8513   -202.88737     3167.196    4631.2145    892.55575            0   -8893.8536    -2994.455    9861.3635   -15760.762    116.83885    3350.4253    49.645487   0.98461041 
  102000    775.43287     298.5348   -720.09923    120906.65    8841.7564    9324.1158   -482.35938    3069.8254     4548.521    850.49125            0    -8951.197   -3093.4777    9913.7377   -15771.457     135.8659     3284.595    49.448151   0.99644556 
  103000    782.32863    295.94796   -1087.4881    122320.45    8869.2506    9243.3214   -374.07076    3134.2056    4510.6203     879.3193            0    -8898.216   -2956.3685    9827.4571   -15769.305    128.35043     3333.443    49.640143   0.98492841 
  104000    789.25043    299.86352   -287.67045     122570.3    9068.5771    9365.6156   -297.03845    3104.3341    4596.6676    873.42372            0   -8871.4639   -2920.3324    9815.7622   -15766.894    100.04652    3331.1321    49.673918   0.98292074 
  105000    796.06893    301.23551    424.32115    121448.17    8963.1439    9408.4668   -445.32287    3055.6128    4544.1161    904.61846            0   -8949.6702   -2995.8793    9819.2461   -15773.037    98.538872     3285.482    49.521864   0.99200254 
  106000    802.88184    300.17629   -702.31909    122288.85    9024.5398    9375.3843   -350.84449    3118.7018    4533.6253    884.26069            0   -8887.4323   -2953.2267    9825.0858   -15759.291    98.399751    3299.0209    49.635867   0.98518297 
  107000    809.82199    297.51024    316.11618    121820.21    9004.4186    9292.1158   -287.69715    3125.3666    4600.6109    876.13519            0   -8889.8099   -3011.8706    9892.1144   -15770.054    123.94207    3320.1306    49.572382   0.98897291 
  108000    816.76669    299.27371   -106.33034     121690.4    8904.1501     9347.194   -443.04393    3124.3506    4522.9551    828.27173            0   -8918.6214   -2982.0293    9832.2982    -15768.89    119.60553     3303.195    49.554767   0.99002792 
  109000    823.68243    299.24353   -582.85226    122140.66    8940.1422    9346.2516   -406.10938    3042.0611     4666.153    865.73647            0     -8980.06   -3051.1142    9844.2543     -15773.2    123.92109    3328.1725    49.615811   0.98637822 
  110000     830.8195    298.67531    809.41463    119784.93    8765.7636    9328.5045   -562.74089    3052.9708    4561.7913    873.22518            0   -9050.7282   -3103.7187    9830.5667   -15777.576    120.91028    3276.1981    49.294757    1.0057766 
  111000    837.97172    294.13282   -116.84473    121526.56    8741.0485     9186.629    -445.5805    3096.1757    4516.6942    868.18233            0   -8926.6328   -3017.5638    9863.9601   -15773.029    97.704441    3303.8675    49.532518   0.99136259 
  112000    844.85525    298.04732   -724.40235    120546.43    8882.4976    9308.8904   -426.39279    3189.3182    4551.3771    813.57632            0   -8980.6644   -3072.4168    9864.9413   -15773.189    120.52413    3334.2812    49.398996    0.9994231 
  113000    851.81138    295.52534    425.70403     120820.1    8875.5187    9230.1217   -354.60302     3166.082    4641.9352    847.59332            0   -9010.2135    -3079.666    9838.3809   -15768.928    129.32781    3359.4702     49.43635   0.99715931 
  114000    858.95439    296.40668   -18.114292    120974.07    8751.6113    9257.6483   -506.03701     3159.422    4476.7867    845.00632            0    -8987.252   -3017.4257    9803.4615   -15773.288    106.25361    3328.8791    49.457341   0.99589018 
  115000    865.80457    299.06309   -247.53232    121259.04    8965.0766    9340.6158    -375.5392    3154.2643    4598.7627    867.64191            0   -8996.2082   -3072.3697    9848.3046   -15772.143    119.71741    3334.6792    49.496146   0.99354971 
  116000    873.11189    301.58621    355.61676     120261.3    8925.8314    9419.4202   -493.58875    3128.5061    4559.4603    873.91483            0     -9055.47   -3099.0993    9820.6326   -15777.003    113.10002    3323.5691    49.360017    1.0017927 
  117000    880.14187     302.2732    283.56175    120665.98     8823.717     9440.877      -617.16      3070.14    4498.9515    823.85971            0   -9010.1112    -3087.488    9843.7017   -15766.325    113.52531    3301.0792     49.41532   0.99843298 
  118000    886.98946    295.22684    157.63018    120139.54    8547.3468    9220.7984   -673.45165    3068.9209    4429.9493    870.06339            0   -9042.3853   -3149.2824    9872.6632   -15765.766    97.529135    3297.7818    49.343352     1.002808 
  119000    893.96989     301.2357     1000.836    119983.68    8811.4222    9408.4729   -597.05066    3026.6799    4516.6898    845.74631            0   -8986.1667     -3088.64    9862.0072   -15759.534    103.54426    3283.8775    49.322006    1.0041106 
  120000    900.83858    300.42178   -396.03688    121604.05    8947.8895    9383.0519   -435.16241    3184.5393    4563.7312    853.32777            0   -9036.7607   -3064.7404    9796.9163   -15768.937    125.28016     3325.732    49.543044   0.99073086 
  121000      907.712    298.11225   -192.95133     121795.8     8897.962    9310.9184   -412.95638    3138.5071    4602.5614    803.44122            0   -8957.4661   -3066.1947    9871.4601   -15762.732    107.10034    3333.7132    49.569071   0.98917109 
  122000    914.69482    298.63835    367.28224    121601.76    8879.8712      9327.35   -447.47881     3143.658    4518.5498    827.18341            0     -8936.87    -3023.618     9853.729   -15766.981    115.34092    3339.6923    49.542732   0.99074955 
  123000    921.68465    295.73899    40.603941     122050.4    8851.4797    9236.7946   -385.31488    3182.9207    4523.7467    859.98416            0   -8951.9665   -2973.0689    9785.2248   -15764.122     103.3948     3346.503    49.603586   0.98710769 
  124000    928.54577    296.32165   -124.74944    121064.38    8643.5578    9254.9926   -611.43477    3125.0395    4438.6237    832.24191            0   -9007.3398   -3049.8304     9812.407   -15769.916    101.70496    3313.7107    49.469645   0.99514731 
  125000     935.4442    296.33045     793.7459    120252.21    8745.8955    9255.2674   -509.37194    3171.7544    4572.2595    810.19696            0   -9063.5828   -3102.3896    9814.1693   -15775.363    113.38051    3339.6838    49.358773    1.0018684 
  126000    942.20789    296.02205   -5.4844728     120543.7    8847.8418    9245.6354   -397.79363    3228.1073    4565.1312    884.18202            0   -9075.2141   -3091.2318    9791.0857   -15775.068     105.6973    3366.7334    49.398623   0.99944576 
  127000    949.17107    299.50365    179.59785    121747.78    8959.2096     9354.376   -395.16644     3227.173     4555.381    839.43264            0   -9017.1531   -3069.2611     9828.877   -15776.769    111.16529    3356.3973    49.562555   0.98956125 
  128000     955.9773    295.50902   -420.00628    120826.71    8759.0087    9229.6118   -470.60311    3071.5142    4642.7354     868.8247            0   -9053.6774   -3051.4397    9775.4709   -15777.709    95.209784    3287.1093    49.437252   0.99710475 
  129000    962.81258    300.73905   -151.22909    120555.67    8899.6095    9392.9611   -493.35168    3117.3832    4562.2402    842.69508            0   -9015.6702   -3051.9827     9814.614   -15778.301    112.01803    3305.9179    49.400258    0.9993465 
  130000    969.74399    297.49085   -142.69932    121035.95     8851.741    9291.5102   -439.76919    3172.7307    4579.8686    838.99042            0   -9031.3589   -3049.5754    9791.7402   -15773.524    124.67743    3342.8101    49.465772   0.99538108 
  131000    976.65469    297.17695   -32.577586    119272.46    8759.8232    9281.7061   -521.88289    3145.9968    4564.7028    847.52215            0   -9080.1046   -3137.0536    9833.2868   -15776.338    131.44476    3313.3886    49.224358    1.0100981 
  132000    983.54014    297.00112    85.998153    120609.01     8698.039    9276.2146   -578.17561    3103.2013    4608.1133    825.24522            0   -9114.7355   -3118.7927    9765.8852   -15761.828    145.26458    3313.9969    49.407542   0.99890458 
  133000    990.46125      299.134   -110.64196    121252.97    8810.2401    9342.8305   -532.59036    3052.1178    4620.8132     831.8072            0   -9037.3286   -3109.0529    9831.3833   -15759.659    116.17988    3308.7725    49.495319   0.99359947 
  134000    997.79763    294.43321   -690.76053    120785.12    8652.6505    9196.0113   -543.36075    3076.1088    4639.3487    853.25753            0   -9112.0758   -3152.9566    9808.7032   -15767.822    98.841611    3308.6812    49.431579   0.99744808 
  135000    1004.8743    297.48727   -464.25441    121372.01    8879.0765    9291.3985   -412.32197    3155.9243    4604.5251    835.62223            0   -9008.3936   -3055.3722    9810.9348   -15763.956    112.10003    3312.4304    49.511512   0.99262495 
  136000    1012.0766    295.20445    127.77997    122159.66    8531.6453    9220.0991   -688.45379    3063.3236    4419.6402    846.45756            0   -9017.8752   -3009.7759    9763.7773   -15771.877    100.13464    3274.5436    49.618383    0.9862248 
  137000    1018.9668    297.99361    430.09465    121167.04     8885.647     9307.213   -421.56599    3121.3831    4633.8206    828.92236            0    -9005.692   -3085.4452     9846.035   -15766.282    109.02278    3338.5277    49.483625    0.9943041 
  138000    1025.8532    294.14795    543.11027    120770.77    8541.7214    9187.1016   -645.38023    2954.8398    4550.2296    862.90493            0   -9013.3545   -3038.4296    9797.8406   -15772.766    108.30851    3246.2855     49.42962   0.99756665 
  139000     1032.633     297.5685    315.85188    121328.53    8920.6013    9293.9353   -373.33405    3113.6114    4574.8804    868.78764            0   -8930.6135   -3020.3252    9862.8054   -15773.094    104.48391     3321.832    49.505598   0.99298069 
  140000    1039.4156    296.10974   -455.79128    121661.86    8755.1213    9248.3742   -493.25291    3087.0302    4553.2865    891.75848            0   -9025.3281   -3004.2673    9755.8546   -15776.915    112.57475    3289.1075    49.550893   0.99026015 
  141000    1046.1384    301.31591     678.9628    119915.74    8937.2648     9410.978   -473.71317    3007.4607    4656.6394    865.69429            0   -9003.5077   -3044.8235    9809.9416   -15768.626    110.04463     3278.601    49.312695    1.0046795 
  142000    1052.9922    294.97424    -150.9341    121282.27    8785.9976    9212.9092   -426.91163    3109.4927    4546.3306    877.76715            0   -8960.5022   -3031.1641    9840.2614     -15769.6     118.4184    3314.9128    49.499306   0.99335944 
  143000    1059.7841    297.09615    88.090922    120866.45    8947.6274    9279.1827   -331.55534    3159.3847    4656.8571    867.21403            0   -9015.0111   -3061.5851    9817.4105   -15770.837    137.07149      3335.59     49.44267   0.99677697 
  144000    1066.6135    298.29771    364.28196    121140.53    8910.6693    9316.7107   -406.04146    3107.5584    4591.3583    845.87991            0   -8950.8381   -3002.3109    9822.3033    -15770.83    115.64077    3331.3298    49.480014   0.99452177 
  145000    1073.5999    294.64834    198.21748    121704.96    8682.8917    9202.7304    -519.8387    3049.5875    4498.0634    852.98681            0   -8920.4765   -2941.8885    9792.1354   -15770.723    114.87162    3273.1245    49.556743   0.98990948 
  146000    1080.6292    297.07174    511.06553    121636.32    8835.8159    9278.4203   -442.60438    3072.7184    4552.8512    897.59694            0    -8965.771   -3039.2439    9848.7318   -15775.259    116.95092      3287.17    49.547425   0.99046804 
  147000    1087.5397    296.61609    555.39239     120009.4    8713.5316    9264.1889   -550.65724    3130.4237    4546.2187    875.59686            0   -9102.8965   -3155.9302    9828.8522   -15775.819    101.95028    3334.2172    49.325529    1.0038955 
  148000    1094.2624    298.93148    187.19087    120485.59    8772.1137    9336.5054   -564.39175    3108.0189     4480.117    848.78844            0   -9001.3161   -3023.7883    9799.6809   -15777.209     118.3814    3313.9756    49.390683   0.99992782 
  149000    1101.2451     298.2768    342.72894    120962.76    8716.8184    9316.0578   -599.23943    3062.8544    4576.4683    832.45949            0   -9071.0216   -3067.4212    9767.9944   -15771.595    108.34148    3291.7287    49.455799   0.99598332 
  150000     1108.119    295.48191    212.55191    120196.12    8757.8965    9228.7651    -470.8686    3101.0403    4626.7823    834.81369            0   -9033.5048   -3003.0724    9746.7012   -15777.134    123.52486    3303.1966    49.351097     1.002336 
  151000    1115.3444    296.92446    442.82263    120057.44    8820.7808    9273.8201   -453.03927    3043.2548    4690.0715    849.24329            0   -9035.6089   -3104.3685    9842.6441   -15773.884    129.55229    3301.7827    49.332111    1.0034937 
  152000    1122.5135    296.80746   -171.95071    119566.56    8682.0267     9270.166   -588.13931    3030.1133    4582.9129    887.84418            0   -9089.0097   -3105.0219    9784.1943   -15768.182    105.78965    3301.3041    49.264784    1.0076135 
  153000    1129.4422    301.45054    712.44581    120578.85    8870.2249     9415.183   -544.95809     3112.363     4567.112    873.49315            0   -9097.9262   -3061.4188    9730.9505   -15767.458    106.17676    3304.4373    49.403424   0.99915439 
  154000    1136.3242    298.56356    620.32721    119903.01      8735.26    9325.0141    -589.7541    2982.1688    4645.0827    844.82431            0   -9061.8299   -3076.4861    9778.2306   -15763.574    110.27391    3281.2437     49.31095    1.0047862 
  155000    1143.2938     297.4448    169.35655    120131.23    8856.1552    9290.0718   -433.91664    3136.5028    4628.2655     855.5297            0   -9054.2146    -3055.504    9768.5374   -15767.248    129.88041    3314.2304    49.342215    1.0028773 
  156000    1150.2062    292.02283    683.09122    119703.17    8539.9392    9120.7279   -580.78868    3050.5069    4586.8589    873.76816            0   -9091.9226   -3104.7671    9777.2373   -15764.393     103.6158    3288.7356    49.283538    1.0064637 
  157000    1157.1206    299.02848    105.78308    119732.69    8883.2671     9339.535   -456.26797    3138.8864    4672.9029    843.49535            0   -9111.5526    -3126.862    9783.2799   -15767.971    116.13018    3344.3989    49.287589    1.0062155 
  158000    1164.2129    298.05235    670.42303    120540.97    8847.8474    9309.0476   -461.20021    3147.9574    4573.5293    860.09082            0   -9042.7777    -3073.302    9798.9773   -15768.453    117.41455    3325.8225     49.39825   0.99946839 
  159000    1171.3297    295.91411   -48.749293    120402.73    8682.4302    9242.2639   -559.83368    3077.9632    4632.6579    820.30754            0   -9090.7624   -3125.6721    9809.7463   -15774.837    119.93262    3310.0225    49.379359    1.0006159 
  160000     1178.323    296.24862   -419.23217    122152.01    8998.4787    9252.7118    -254.2331    3169.3935    4677.9862    853.61711            0   -8955.2299     -2975.18    9791.6467   -15771.697    117.53543    3354.8463    49.617347    0.9862866 
  161000    1185.1923    298.49753    507.17043    120941.72    8782.9992    9322.9517   -539.95252    3098.4399    4503.2814    831.93308            0   -8973.6069   -3045.5796     9836.937   -15764.964    125.78346    3305.0713    49.452933   0.99615653 
  162000    1192.3516    298.13099   -781.44075    122155.36    8721.8585    9311.5037   -589.64521    3025.8816    4527.4771    824.41497            0   -8967.4189   -3083.4685    9883.1988   -15767.149    108.78319    3260.5164    49.617801   0.98625952 
  163000    1199.1817    295.25317    324.61204    120132.71    8636.5145     9221.621   -585.10641    3080.5397    4533.6148    876.36729            0   -9075.6282   -3053.7732    9747.3207   -15769.176    119.02576    3297.3427    49.342417     1.002865 
  164000    1205.9915    296.68056    261.58751    121436.98    8870.3032    9266.2026    -395.8994    3097.6334    4667.4637     904.0377            0   -9065.0342    -3077.136    9779.7794   -15767.678    112.36492    3337.5829    49.520344    0.9920939 
  165000    1212.6997    296.72634    610.98792    122368.28    8820.3222    9267.6323   -447.31009     3047.618      4573.62    863.09153            0   -8931.6396     -2945.56    9785.7445   -15771.824      123.066    3296.8208    49.646612   0.98454348 
  166000    1219.5528    303.80493   -18.012951    120915.95    9023.5108    9488.7173    -465.2065    3108.3653     4535.231    863.70725            0     -8972.51   -3055.7772    9859.5588   -15776.292    111.16585    3319.8612    49.449419   0.99636889 
  167000    1226.6402    293.11315    25.934563    122387.52    8673.4889    9154.7817   -481.29281     3024.318    4594.8776    863.77747            0   -8964.2659   -3036.4466    9846.4577   -15774.277    102.54732    3290.0993    49.649214   0.98438868 
  168000    1234.0026     298.0017    336.62457    120793.71    8901.2084    9307.4656   -406.25714    3097.8843    4564.1381     903.0217            0   -8971.3013   -3047.6434    9835.9871   -15759.645    106.88549    3299.3576    49.432751   0.99737715 
  169000    1240.9676    293.51736   -261.29027    121580.05    8617.9469    9167.4063   -549.45942    3061.5635    4531.9278    874.92211            0   -9017.8728   -3033.4768    9796.8657   -15781.262    119.00778    3282.3965    49.539784   0.99092647 
  170000    1247.9344    297.79732    610.44942    122102.09    8818.0065     9301.082   -483.07556    3029.5038    4538.6133      889.727            0   -8940.9197    -3003.434    9832.9002   -15770.386    106.61778    3289.5985    49.610587   0.98668982 
  171000    1254.7696    298.26773    645.82677    121307.78    8962.8763    9315.7743     -352.898    3065.6909    4589.9586    934.66703            0   -8943.2145   -3004.7673    9837.5194   -15775.967    116.57518    3319.4727    49.502775   0.99315059 
  172000    1261.6633    301.04367    86.215163    121237.89    8946.6876    9402.4751   -455.78746    3086.1455    4534.6112    880.31749            0   -8956.8616   -3032.2166    9844.1505   -15768.795    115.47774    3323.1833    49.493266   0.99372312 
  173000    1268.5183    294.43755   -250.71075    121892.54    8738.7223    9196.1468   -457.42453    3163.6609    4487.1372    852.77359            0   -8960.9962   -2979.2517    9788.1581   -15769.903    123.88519    3330.4303     49.58219   0.98838609 
  174000     1275.372    298.17859   -406.85098    121695.59    8824.6737    9312.9903   -488.31657    3118.8664    4532.8757    846.43061            0   -8986.4892   -3047.7041    9833.1871   -15771.972    111.47453    3325.3029    49.555472   0.98998566 
  175000    1282.2609    300.04738   -751.25675    120713.32    9016.8156     9371.358    -354.5424    3180.3777    4574.9859    902.00806            0    -9011.914   -3078.4263    9838.2029   -15771.691    127.13257     3358.995    49.421781   0.99804141 
  176000      1289.11    301.19999    323.92089    119550.88    8774.4123    9407.3576   -632.94534    3036.2749    4561.7219    854.11675            0   -9085.0588   -3072.5661    9763.0749   -15775.568    111.93572    3290.9483     49.26263    1.0077457 
  177000    1295.9648    298.55693    410.31865    120628.32    8830.1595    9324.8072   -494.64765    3143.9585    4496.7319    895.06989            0    -9030.408   -3023.6503    9762.4928    -15769.25    125.76425    3343.4507    49.410178   0.99874468 
  178000     1302.933    299.18345    20.469802    121418.08    9171.0486    9344.3752   -173.32658     3192.959    4718.0286    913.24815            0   -8997.5624   -3052.7281    9827.3641   -15772.198    119.32346    3370.9422    49.517774   0.99224839 
  179000    1309.8862    296.49985    650.90571    120537.58    8706.2024    9260.5583   -554.35588    3129.1304    4506.7109    864.20314            0   -9054.4004   -3045.5524    9770.0965   -15778.944    124.46012    3339.5373    49.397786   0.99949651 
  180000     1316.712    299.15577   -344.76256     120361.4    8884.5343    9343.5105   -458.97615    3177.8582    4620.4469    842.55545            0   -9099.8367   -3144.7275    9823.8524   -15778.962    124.65649    3368.5766    49.373708    1.0009595 
  181000     1323.616    298.64103    492.34563    120317.99    8814.7048    9327.4338   -512.72898    3166.2704    4558.9734    857.38891            0   -9095.3617   -3122.4974    9807.4576   -15780.322    113.66868    3329.2881    49.367771    1.0013207 
  182000    1330.4897    296.92864    190.73119    120697.14    8699.6677    9273.9508   -574.28305    3150.6013    4508.6315    852.42814            0    -9085.944   -3096.3828    9782.2357   -15771.797    111.47017    3350.4297    49.419574   0.99817514 
  183000     1337.415    299.26992    878.08453    120740.26    8855.1668    9347.0756   -491.90883    3170.5523    4569.0459    840.41789            0   -9071.9249   -3115.3702    9822.4474   -15779.002    100.81573    3355.2547    49.425458    0.9978187 
  184000    1344.3756    301.78469    212.28648    121036.29    8908.5874    9425.6194   -517.03205    3099.3053    4523.7896    875.02518            0   -9015.1521   -3156.3847     9922.611   -15781.379     112.0984    3318.0528    49.465819   0.99537824 
  185000    1351.1913    299.82991    286.45943    120804.01    8802.2042    9364.5658   -562.36168     3087.767    4511.2774    862.38298            0   -9023.7891   -3105.4422    9845.8761   -15764.223    118.94177    3307.5001    49.434155   0.99729217 
  186000    1358.3587    303.32886    1007.7631    120067.64    8937.9094    9473.8482   -535.93888    3070.9502    4600.8566    864.62689            0   -9072.3725   -3105.2914    9814.1657   -15781.247    113.03383     3324.478    49.333507    1.0034085 
  187000     1365.086     298.1675    244.54415    120428.38    8817.4105    9312.6439   -495.23339    3087.5762    4570.3043    852.71342            0   -9005.8273   -3082.3357    9840.1949   -15763.687    121.82287    3316.1771    49.382865    1.0004028 
  188000    1371.9945    298.42904    49.078588    121489.87    8831.7724    9320.8128   -489.04041    3152.4413    4564.8657    856.87908            0   -9063.2265   -3079.0455    9791.1359   -15775.317    126.69997    3346.7415    49.527532   0.99166205 
  189000    1378.7042    297.54675    135.18962    122142.52    8729.1074    9293.2561   -564.14877    3102.3873     4479.753    837.69328            0   -8983.9823   -3037.8665    9829.9368   -15776.053    126.31092    3310.6647    49.616062    0.9863632 
  190000    1385.5521    297.14148   -367.60574    121406.52    8773.8697    9280.5982   -506.72851    3075.8777    4595.1515    854.21892            0   -9031.9767   -3051.2004    9800.6958   -15781.472    125.68279    3312.7369    49.516203   0.99234286 
  191000    1392.2904     296.7951    133.97399    121195.25    8800.5747      9269.78   -469.20538    3060.0508    4567.7151    840.38242            0   -8937.3538   -3031.5227    9864.2746   -15770.106    112.58272    3311.4211    49.487465   0.99407267 
  192000    1399.1252    294.00976    1198.8498    119497.36    8563.4719    9182.7856   -619.31373     3033.355    4553.7924    861.47822            0   -9067.9394   -3060.1009    9768.6987   -15776.537    127.76299    3291.8203    49.255278    1.0081971 
  193000     1405.873    295.06304    590.39383    120872.68    8790.9887    9215.6827   -424.69391    3169.8554    4587.4923    839.70922            0   -9021.7509   -3019.4456    9777.7336   -15780.039    110.11761    3356.3367    49.443521   0.99672554 
  194000    1412.7903    299.73595    786.22229    121215.82    8839.8671    9361.6312    -521.7641    3012.7484    4582.7377    828.11686            0   -8945.3672   -3027.0817    9856.2879   -15774.573    161.21513    3311.6834    49.490264   0.99390399 
  195000    1419.6474    299.32428   -179.24561    120911.36    8734.4148    9348.7736   -614.35883    3093.7462     4524.018    825.41374            0   -9057.5368   -3080.9402    9800.9677   -15777.564    117.82089    3316.1395    49.448794   0.99640666 
  196000    1426.4067    304.12803    348.15088    120284.91    8915.4545    9498.8087   -583.35427    3046.6252    4601.5052    889.24255            0   -9120.7271   -3175.1709    9829.8388   -15775.395    128.79604      3299.41    49.363247     1.001596 
  197000    1433.2058    298.23213   -554.40907    120141.54     8617.045    9314.6627   -697.61762     3099.439    4501.3513    824.87896            0   -9123.2869   -3115.4378    9771.1941   -15779.043    131.47111    3317.7416    49.343627    1.0027913 
  198000    1439.9531    294.01007   -369.88922    120330.03    8684.7773    9182.7954   -498.01804    3128.8186    4577.2329    837.42679            0   -9041.4963   -3053.2657    9783.8682   -15772.099    104.47288    3318.8824    49.369419    1.0012204 
  199000    1446.6556    302.58983   -67.462991    120945.19    8849.2039    9450.7663   -601.56246    3105.4472    4446.1864    840.90384            0   -8994.0999   -3017.4055    9798.1028   -15774.797     120.5267    3315.4226    49.453405   0.99612802 
  200000     1453.376    297.36405   -255.17795    121647.44    8786.0487    9287.5499   -501.50121    3103.9342    4572.7959    833.43078            0   -9011.6621   -3103.7546    9855.7049   -15763.612    121.94255     3320.367    49.548935    0.9903775 
  201000     1460.183    294.77444   -431.38632    121503.05    8809.4703    9206.6688   -397.19848    3105.3458    4653.6432    842.78948            0   -8998.9769   -3051.9121    9820.9519   -15768.017    125.67396    3329.7821    49.529323   0.99155448 
  202000    1467.2339     301.7565    501.14416    121834.15    8938.9473     9424.739   -485.79174    3156.1878     4480.186    801.77699            0   -8923.9425   -2982.9658    9823.4937    -15764.47     119.3321    3367.9782    49.574272   0.98885977 
  203000    1474.4175    300.47671   -455.16252    121542.64    8974.0394    9384.7674   -410.72792    3165.7453    4559.7443    873.82225            0   -9010.0398   -3045.6436    9806.2701   -15770.666    102.39682    3329.5272    49.534702   0.99123145 
  204000    1481.2754    299.55572    78.033483    120274.51    8803.6873    9356.0022   -552.31485    3111.9332    4515.5448    900.74455            0   -9080.5374   -3091.5689    9791.3603   -15780.329    119.32844      3310.94    49.361824    1.0016826 
  205000    1488.2403    295.53791    268.13668    121501.57    8760.8343    9230.5142   -469.67984    3172.9758    4552.1795    859.44337            0   -9054.2784   -3076.5924    9801.7948   -15779.481    109.80872    3346.8694    49.529122   0.99156655 
  206000    1495.2035     295.5007   -386.12377    120243.03    8584.9314    9229.3519   -644.42041    3115.4081    4517.0062    834.84176            0   -9111.6764   -3092.3459    9763.7051   -15783.036    104.45446     3311.643    49.357517    1.0019449 
  207000    1502.0021    297.67931   -93.663481    121261.95    8850.4367    9297.3963   -446.95954     3106.352    4573.3465    864.70561            0   -8991.3637    -3107.375    9894.4818    -15778.47    112.10723    3304.4157    49.496541   0.99352593 
  208000     1508.901    299.69975   -212.27232     120624.7    8915.8101    9360.5007   -444.69062    3157.3757    4570.2218    859.04669            0   -9031.3348   -3050.3673       9791.8   -15772.767    102.10231    3336.9405    49.409685    0.9987746 
  209000    1515.7759     297.6688   -667.45161    120371.23    8715.8681     9297.068   -581.19985    3028.3348    4538.1893    890.43234            0   -9038.1563   -3047.3959    9790.4863   -15781.247    107.37386    3288.7829    49.375053    1.0008777 
  210000    1522.4978    297.10961     687.4773    121386.68    8812.5931     9279.603   -467.00991     3094.031    4568.2149    841.26859            0   -8970.5243   -3006.0359    9810.7892   -15775.278    106.63144    3314.6688    49.513506   0.99250501 
  211000    1529.3717    302.20328    -403.6011    121470.57    8942.4893    9438.6931   -496.20376    3107.3345    4623.9691    850.91544            0   -9078.4227   -3102.7582    9800.3488   -15776.013    115.40778    3321.7271     49.52491   0.99181954 
  212000    1536.1021    297.69092    -385.9439    120809.71     8870.547    9297.7591    -427.2121    3075.5169    4641.3635    893.80531            0   -9037.8979   -3045.2602    9783.5026    -15776.14    119.68664    3302.0895    49.434933    0.9972451 
  213000    1542.8577    299.12907   -449.95633    120398.15    8856.2045    9342.6766   -486.47211    3124.1095    4582.6421    883.57474            0   -9076.7984   -3116.7462     9816.563   -15776.615    104.89748     3317.459    49.378733     1.000654 
  214000     1549.623     298.1223   -585.66974     120336.5    8675.3474    9311.2323   -635.88487    3092.7118    4500.6577    817.13287            0   -9046.3873    -3109.993    9825.6412   -15762.035    130.16452    3318.4625    49.370303    1.0011666 
  215000    1556.5392    299.91421    427.17693    121189.13      8950.73    9367.1988   -416.46882    3193.0355    4544.0873    875.56808            0   -9029.1597   -3013.8688    9759.6558   -15774.947    113.27816    3335.8878    49.486631   0.99412291 
  216000    1563.4842    298.52658     817.6985    120421.75    8755.6229    9323.8591   -568.23623    3098.2777    4594.6593    852.55847            0   -9113.7316   -3107.5855    9767.5292   -15773.675    108.06776    3307.4675    49.381959    1.0004579 
  217000    1570.4369    297.65524   -530.71201    120231.54     8545.178    9296.6445   -751.46655    3105.2258    4421.9077    839.88937            0   -9118.4894   -3113.1408    9772.8369   -15778.186     100.7504    3283.8099    49.355944    1.0020407 
  218000     1577.227    291.71352    325.96516    120642.35    8670.6534    9111.0674   -440.41393    3095.1173     4646.788    845.80938            0   -9028.1286   -3002.1724    9752.7378   -15778.694    130.35932    3305.0873    49.412095   0.99862847 
  219000    1584.0072    297.23517   -273.32503    121373.57    8896.4026    9283.5246   -387.12201     3163.362    4647.3266    894.17239            0    -9091.983   -3089.2464    9778.9624   -15781.699    99.681283    3330.1752    49.511723   0.99261222 
  220000    1590.7696      296.772   -847.73739    119846.39    8738.9529    9269.0584   -530.10545    3076.4678    4669.7191     864.4928            0   -9140.7851   -3188.2965     9825.922   -15778.411    110.37922     3316.898    49.303186    1.0052609 
  221000     1597.792    301.02672    -360.6555    121161.54    8982.3649    9401.9458   -419.58085     3100.495    4689.3327    857.01676            0   -9066.4253   -3043.9179    9755.6158   -15778.123    123.07285    3317.4294    49.482875   0.99434929 
  222000    1604.6106    298.66765    504.64544     120631.2    8728.9855    9328.2652   -599.27973    3026.8272    4555.7445     825.5513            0   -9007.4027   -3070.2779    9839.2696   -15776.394    108.67742    3283.1794    49.410572   0.99872083 
  223000     1611.409    297.95671    27.096723    121735.69      8856.89    9306.0603   -449.17034     3072.499    4630.6311    846.03163            0   -8998.3321   -2979.8498    9746.3862   -15764.869    128.15881    3300.0386    49.560914   0.98965956 
  224000    1618.1471    297.80581     749.0005    120783.95    8798.1525    9301.3474   -503.19495    3103.4873    4609.8506    834.28096            0   -9050.8138   -3087.8784    9813.9463   -15776.882    110.46044     3338.072    49.431419   0.99745778 
  225000    1624.9152    301.83284    -233.0707    121365.32    8712.3838    9427.1233   -714.73958    3004.4184     4465.186    845.47171            0   -9029.8157   -3010.9737    9756.8696   -15775.712    104.92586    3266.3337    49.510601    0.9926797 
  226000    1631.7028    296.64065    645.93829    122240.43    8906.5101    9264.9561     -358.446    3071.5741    4619.7282    887.01097            0   -8936.7592   -2952.8302    9792.1381   -15776.067    117.40984    3324.4234    49.629316    0.9855732 
  227000     1638.409    296.08853    67.979362    121248.22    8847.1216    9247.7117   -400.59015    3081.1572    4564.4411    895.89111            0   -8942.0796   -2981.6566    9809.1305   -15769.553    119.88888    3307.1372    49.494673   0.99363842 
  228000    1645.3041    298.85109   -78.329015    121303.48    8752.2699    9333.9944   -581.72454    3057.3286     4505.064    830.34666            0   -8974.4637   -3020.9588    9820.0347    -15773.54     117.8866    3298.4094    49.502191   0.99318576 
  229000      1652.21    299.18542    382.91899    121687.22    9015.8268    9344.4367   -328.60987    3111.7299    4627.8097     903.7763            0   -8971.9257   -3023.4728    9827.1661   -15775.619    157.86616    3344.4624    49.554335   0.99005376 
  230000    1659.0411    298.79149     648.6864    121564.53     8827.851    9332.1331   -504.28214    3084.5009    4522.0471    854.31831            0   -8965.1484    -2957.277    9765.5042   -15773.376     106.4835    3318.9168    49.537676   0.99105295 
  231000     1665.784    301.36188    602.37388    121278.61    8805.3262    9412.4139   -607.08766    3083.5172    4504.7372    833.05122            0   -9028.3932   -3049.9531    9789.8237   -15768.264    117.78997    3320.4992    49.498808   0.99338944 
  232000    1672.5504    296.81914   -19.309031    120543.15    8703.5809    9270.5307   -566.94984    3058.1364    4545.7982    874.47938            0   -9045.3639   -3041.3299    9774.1483   -15778.182    105.93074    3291.7163    49.398547   0.99945033 
  233000    1679.4127    294.61091   -500.68662    120712.96    8834.8548    9201.5614   -366.70655    3180.9508    4618.0446    894.16319            0   -9059.8651   -3089.8447     9799.227   -15769.247    97.889052    3346.8744    49.421733   0.99804433 
  234000    1686.3285    295.27978    -177.5886    120772.24    8750.8866    9222.4522   -471.56552    3120.6063    4611.2761    865.24843            0   -9068.6964   -3081.3206    9784.2491   -15771.625    110.85477    3320.8336    49.429821   0.99755451 
  235000    1693.1847    299.08137   -872.63362    120354.08    8832.0485    9341.1868   -509.13833    3112.8677    4607.4495    874.32146            0    -9103.777   -3117.1481    9781.9093   -15768.538    110.59647    3309.9326    49.372707    1.0010204 
  236000     1700.038    301.65805    429.24359    120827.72    9020.0269    9421.6641   -401.63721    3157.5933    4630.1359    866.74662            0    -9056.113   -3073.2418    9776.0131   -15758.884    126.71547    3350.0134    49.437389   0.99709643 
  237000    1706.9164    296.73613   -140.21192    120035.32    8769.2641     9267.938   -498.67387    3144.8377    4637.9776    845.61449            0   -9127.1037   -3133.2939    9781.5487   -15775.359    130.25321     3345.037     49.32908    1.0036787 
  238000     1714.153    295.09959   -126.35754    119908.61    8557.8175    9216.8243   -659.00682    3113.3916    4511.9036    887.60283            0   -9171.9049   -3143.7317    9748.9699   -15777.143     114.0946    3297.1099    49.311717    1.0047393 
  239000    1721.2417    299.27891    353.20642    121192.09    8913.8795    9347.3566   -433.47712    3113.5341    4650.0428    829.51839            0   -9026.5724   -3074.9914    9826.8096   -15778.391    108.32688    3365.7168    49.487033   0.99409865 
  240000    1728.4719    299.33499   -168.86717    121299.21    8796.4371     9349.108   -552.67086    3115.1267    4486.0749    897.88894            0   -9051.7613   -3081.0089    9806.5503   -15777.303    112.18744    3327.1117    49.501609   0.99322076 
  241000    1735.4634    295.98369    -87.86473    120010.11    8878.0066    9244.4371   -366.43055    3221.5793    4598.6939    892.41134            0   -9079.1151   -3066.8131    9768.7046   -15781.007    131.20338    3370.9274    49.325627    1.0038895 
  242000    1742.4356     299.0726   -420.55825    121825.14    8933.5546    9340.9129   -407.35836    3144.4945    4638.7281    849.30652            0   -9039.8875   -3037.5884    9773.2486   -15775.548     132.5274     3329.585     49.57305   0.98893292 
  243000    1749.3641    297.30106   -487.32661    121345.42    8883.6338    9285.5825   -401.94864    3137.9983    4566.5297    908.99497            0   -9015.4717   -2993.1077    9758.0789   -15780.443    123.43741    3326.9616    49.507895   0.99284249 
  244000     1756.238    297.86453    637.87526    123096.83    9040.5024    9303.1813   -262.67885    3156.6971     4596.082    869.77387            0   -8885.2318   -2966.7932    9854.2896   -15772.728     117.6762      3376.46    49.744945   0.97871643 
  245000    1763.1611    299.78923    163.87685    121290.84    8813.5844    9363.2953   -549.71098    3101.0392    4505.2244    879.70498            0   -9035.6795   -3009.8501    9754.1863   -15780.016    117.15774     3302.642    49.500472   0.99328924 
  246000    1769.9567    303.25244    579.83134    121646.45    9035.4758    9471.4616   -435.98578    3156.1499    4527.7789    867.97191            0   -8987.8865   -2980.8956    9766.1603   -15773.151    138.28954    3336.2783      49.5488   0.99038561 
  247000    1776.7561     297.2902   -118.15865    121449.51    8832.5535    9285.2434   -452.68988    3112.1004    4593.8398    888.81226            0   -9047.4423   -3060.5114    9789.5862   -15776.517    119.98932    3313.6971    49.522048   0.99199154 
  248000    1783.6174    297.58381    336.04186    121575.77    8805.2288    9294.4136   -489.18477    3025.8804    4603.3131    905.69173            0   -9024.0699   -3088.5094    9832.0035   -15767.564     122.8586    3287.1398    49.539203   0.99096132 
  249000    1790.4897    298.38754    238.01902    121066.62    8808.1108    9319.5165   -511.40561    3084.7608    4544.5482    854.46654            0   -8995.1811   -3048.7931    9830.6717    -15777.06    114.28608    3296.0924    49.469951   0.99512885 
  250000    1858.2546    296.27454   -1096.5119    120693.88    8659.7649    9253.5213   -593.75641    3102.9817    4483.0691    856.31916            0   -9036.1263   -3068.6291    9813.6447   -15781.142    109.17651    3288.8145    49.419129   0.99820214 
  251000    1865.1695    297.64103   -335.24101    119465.03    8661.2975    9296.2008   -634.90328    3055.9949    4549.6726    847.85969            0   -9088.4305   -3146.6141    9824.9738    -15766.79    108.93572    3271.6856    49.250835    1.0084699 
  252000    1872.0026    295.96467    312.42646    121006.28    8871.4479    9243.8431   -372.39522    3148.2117    4590.2105     894.2371            0   -9005.0545   -3049.2218    9814.7004   -15770.533    105.92988    3321.6979     49.46173    0.9956251 
  253000    1878.8405    296.19742   -394.12213    119616.12    8454.3165    9251.1125     -796.796    3080.0502    4393.3248    861.90205            0    -9132.073    -3109.829    9758.1468   -15780.391    118.63899    3272.6642    49.271589    1.0071961 
  254000    1885.7138    295.45406    558.91636    120848.69    8784.4673    9227.8953   -443.42798    3057.6385    4598.1353    856.16466            0   -8955.3664   -3015.1382    9829.3541   -15769.582      102.714    3295.1013    49.440249   0.99692345 
  255000    1892.7556    296.79448   -354.88223    121503.94    8839.1987    9269.7604   -430.56165     3159.932    4535.4609    897.26747            0   -9023.2219    -3045.059    9793.4584   -15771.621    99.669269    3328.6287    49.529445   0.99154715 
  256000    1899.6236    297.11632     15.84775    120471.86    8773.6191    9279.8126   -506.19351    3071.1218     4565.871    871.45033            0   -9014.6367   -3075.9555      9833.67   -15772.351    99.371183    3297.2652    49.388807    1.0000418 
  257000    1906.5267    303.21077   -471.40274     121310.1     8951.567    9470.1602   -518.59321    3154.4904    4534.1483    850.09866            0   -9057.3306   -3074.9401    9787.9498    -15770.34    103.55412    3312.4486    49.503091   0.99313157 
  258000    1913.6307    297.41867   -33.902773    120274.73    8640.5859     9289.256   -648.67008    3068.9232    4486.8591    886.39128            0   -9090.8437   -3100.5155    9786.9243   -15777.252    112.63168    3298.0873    49.361854    1.0016808 
  259000    1920.5533    302.59568    538.99966    121365.96    8862.4181    9450.9489   -588.53086    3028.1803    4559.2243    861.70907            0   -9037.6446   -3019.8376    9761.3709   -15779.178    101.14886    3299.2643    49.510688   0.99267449 
  260000    1927.7272    302.74669   -309.53307    120287.13     8932.351    9455.6656   -523.31457    3132.7476    4485.0082    873.67206            0   -9014.7425   -3081.8983    9841.7865   -15774.631    118.38931    3315.6585    49.363551    1.0015775 
  261000    1934.9604    298.70893   -57.614084    119819.66    8717.3412    9329.5546   -612.21332    3057.2414    4602.6278    883.03816            0   -9155.1207   -3158.5834    9784.0573   -15780.595    109.72469    3287.7863     49.29952    1.0054852 
  262000    1942.0601    303.53378   -76.308693    120538.15     9109.354    9480.2485   -370.89453     3162.444    4691.5653    826.56203            0   -9051.4659   -3084.0575    9804.4741   -15771.882    112.88328    3366.5287    49.397864   0.99949178 
  263000    1949.0184     298.4583   -416.92823    119963.77    8824.7457    9321.7265    -496.9808    3218.5092    4471.2496    866.40048            0   -9053.1401   -3110.6209    9828.8829   -15771.402    112.23003     3352.947    49.319277    1.0042773 
  264000    1956.3705    297.01442    79.296902    121913.44    8789.0019      9276.63   -487.62811    3117.5789    4534.3373    849.64423            0   -8989.1885   -3029.4018    9819.0993   -15778.886    115.79187    3329.1716    49.585025   0.98821661 
  265000    1963.1964    294.67244    227.02927    120695.73    8864.5264    9203.4829   -338.95653    3126.7339    4642.0349    883.67819            0   -8991.4035   -3031.4597    9818.8327   -15778.777    104.26723    3344.0429    49.419381   0.99818686 
  266000    1970.0118    299.17128    894.17551    120471.74    8840.3545     9343.995   -503.64048     3080.188    4652.8748    816.84571            0    -9053.549   -3057.2501    9774.4418   -15770.741    98.343389    3307.4813    49.388791    1.0000427 
  267000    1976.8167    301.15292    33.609526    121696.81    8713.3574    9405.8873   -692.52987    3006.0454    4468.5241    821.23457            0   -8988.3339   -3037.6555    9822.5307   -15773.209    96.247807     3261.833    49.555637   0.98997574 
  268000    1983.8309    299.86361    374.44497    121259.75    8793.4812    9365.6186   -572.13739    3104.9145    4502.4193    841.51769            0   -9020.9888   -3011.7923    9768.5034     -15777.7    113.16498    3306.5535    49.496241   0.99354397 
  269000    1990.7016    298.70418   -99.872771    120214.11    8803.1611    9329.4061   -526.24505    3126.7583    4589.9709     845.2971            0   -9088.2713   -3112.0409    9800.8823   -15777.113    114.75476    3336.4531     49.35356    1.0021859 
  270000    1997.6444    297.11855   -49.000137    119370.24    8662.2394    9279.8822   -617.64276    3097.4853    4573.6475     846.1459            0   -9134.9215   -3133.9784    9775.2682   -15776.211    113.67641     3320.465    49.237806    1.0092707 
  271000    2004.6695    296.98199    371.90604    118879.58    8746.6951    9275.6169   -528.92175    3071.9466    4592.2272     914.1694            0    -9107.265   -3099.6339    9768.4987    -15776.13    111.53835      3322.89     49.17025    1.0134364 
  272000    2011.7088    296.07752    66.310791    119945.16    8708.6458    9247.3679   -538.72214    3066.2911    4672.1307    881.75184            0   -9158.8957   -3150.8243    9773.5307   -15781.602    108.71465    3317.6076    49.316726    1.0044331 
  273000    2018.6507    300.13114    15.386179    120097.07    8823.7961    9373.9742   -550.17817    3118.8023    4550.3768    813.86631            0   -9033.2236   -3097.2567    9837.2628    -15773.23    116.45975    3310.2173    49.337538    1.0031626 
  274000    2025.6159    292.52765    365.54046    119976.04     8669.298    9136.4951   -467.19709    3110.5188    4656.4227    859.05568            0   -9093.1943     -3130.68    9807.1457    -15769.66    109.07236    3320.2057    49.320958    1.0041746 
  275000    2032.5377    297.10819    83.250376    121636.84     8897.021    9279.5587   -382.53776    3129.4916    4643.2704    841.78824            0    -8997.088   -3067.1497    9847.6002   -15777.539    134.35133     3330.321    49.547496    0.9904638 
  276000    2039.5657    299.47482   -4.0139003    120270.54    8753.4901    9353.4754   -599.98527    3146.5601    4531.9247    839.40189            0    -9117.872   -3079.7366    9739.5106   -15777.646    121.37766    3324.5359    49.361281    1.0017157 
  277000     2046.432    301.25242    144.86006    120939.52    8934.0898    9408.9951   -474.90526    3122.8712     4574.434    874.83562            0   -9047.0461   -3064.9063    9792.0635   -15774.203    128.11394    3305.9894    49.452632   0.99617473 
  278000    2053.1814    297.69111    558.34454     121570.1    8864.1642    9297.7648   -433.60055    3143.8294    4513.3699    887.06713            0   -8977.8669   -3014.3814    9809.8889   -15773.374    126.44253    3333.3095    49.538432    0.9910076 
  279000    2059.8838    293.67615    124.45063    119893.85    8744.9637    9172.3659   -427.40217    3181.5886      4547.16    896.06724            0    -9052.218     -3010.81    9730.0018    -15771.41    134.83415    3342.9816    49.309693     1.004863 
  280000    2066.7062    297.64917    102.12453     121441.6    8756.8403     9296.455   -539.61467    3080.5794    4564.4174    852.24612            0   -9036.8576   -3043.6245    9778.9183   -15772.151    107.58417    3303.8999    49.520972   0.99205615 
  281000    2074.0711    296.56686   -999.15667    121357.29    8792.8608    9262.6512   -469.79045    3197.0756    4575.3622    831.08559            0   -9073.3138   -3106.0143    9805.8591   -15773.159    112.93732    3333.0286     49.50951   0.99274535 
  282000    2081.0882     296.6785    301.89608    120628.01    8734.8795     9266.138   -531.25853    3096.4007    4588.7277    880.18488            0   -9096.5717    -3071.043    9751.9741   -15777.503    128.12092    3312.8191    49.410137   0.99874722 
  283000    2088.0502    296.54495     296.0465    119816.33    8834.6969    9261.9671   -427.27014    3195.3184    4548.8463    877.12615            0    -9048.561   -3039.9646    9768.0759   -15776.672    111.51541    3347.4194    49.299064    1.0055131 
  284000     2095.064    299.15585    272.65041    119766.04    8728.9846     9343.513    -614.5284    3077.6729     4575.605    858.30302            0   -9126.1092   -3111.5275    9755.8216   -15770.403    119.11119    3324.8066    49.292165    1.0059353 
  285000    2102.1397    296.02427   -1.8010614    120242.05    8549.6301    9245.7046   -696.07453    3090.0348    4454.3964    893.98371            0   -9134.4894   -3111.8109    9749.3847   -15772.063    102.83893    3302.7885    49.357384     1.001953 
  286000    2109.1882    295.26089    587.50655    121275.86    8954.2008    9221.8621   -267.66126    3124.3906    4686.0149    910.69763            0   -8988.7644   -2993.4456    9772.5975   -15767.916    107.51681    3339.4559    49.498434   0.99341192 
  287000    2116.6085    296.83397     9.069644    120844.17    8745.3934    9270.9938   -525.60043    3088.8658      4544.78     871.2533            0   -9030.4995   -3053.0006    9789.7123   -15767.211    111.41285    3317.8572    49.439633   0.99696067 
  288000    2123.5425    295.39951   -262.37706    121911.73    8745.7278    9226.1914    -480.4636    3061.9621    4593.4277     867.1195            0   -9002.9728   -3040.9525    9804.0212   -15766.042    106.46622    3310.9553    49.584792   0.98823052 
  289000    2130.4031    294.20999    48.074862     119943.4    8693.5671    9189.0394   -495.47223    3023.5175    4655.7663    917.81174            0   -9092.5678   -3089.7301    9767.7712   -15770.609    98.800501    3312.3985    49.316485    1.0044479 
  290000    2137.3488    298.22188    22.251427    121057.22    8874.6679    9314.3426   -439.67465    3081.8464    4634.9455    879.59133            0   -9036.0579   -3019.2482    9756.8813   -15773.691    108.12808    3315.2463     49.46867   0.99520613 
  291000     2144.293     302.0916    501.59257    120408.59    8772.2935    9435.2051   -662.91162    3032.6595    4480.1668    870.58727            0   -9046.3252   -3048.2115    9775.7091   -15773.823    103.45647    3282.8546     49.38016    1.0005672 
  292000    2151.2111    301.21343     305.3237    121739.89    8989.1146    9407.7772   -418.66266      3095.85    4613.9747    890.75502            0   -9019.2424   -3074.7617    9829.7658   -15774.247    120.92198    3295.9852    49.561484   0.98962542 
  293000    2158.1179    294.76245   -339.06424     121196.1     8779.742    9206.2944    -426.5524    3039.3455    4672.8615    898.06708            0   -9036.8265   -3054.5145    9791.7888   -15774.101    109.25073     3313.248     49.48758    0.9940657 
  294000    2164.8702    295.71676    456.79313    122062.35    8684.0759    9236.1003   -552.02438     3082.863    4461.7291    865.30034            0   -8961.9168   -3045.7995    9856.1709   -15772.288    112.28736    3281.0414    49.605204   0.98701107 
  295000    2171.6625    297.25677    178.54951    121090.57     8795.844    9284.1992   -488.35515    3072.5501    4514.1434    899.18834            0    -8974.237   -3023.0813    9817.2065   -15768.362    107.42079      3299.49    49.473212   0.99493205 
  296000    2178.4488    306.64613    -366.1806     121300.2    9147.5638    9577.4564   -429.89254    3131.5723    4539.0031    887.09241            0   -8987.5604   -3012.3297    9795.5907   -15770.821    123.78997    3312.8777    49.501745   0.99321259 
  297000    2185.3123    300.25435   -22.258739    120181.86    8739.4036    9377.8223   -638.41868    3007.4881    4609.7419    861.79026            0   -9117.4389   -3119.9831    9780.2273   -15777.683    103.06004    3247.5331    49.349146    1.0024549 
  298000    2192.6753    298.07548    771.48808    121121.11    8743.3857      9309.77   -566.38431     3101.783    4531.4443    867.87433            0   -9067.4859     -3044.31    9753.5638    -15776.74    121.63965    3301.1176    49.477371   0.99468115 
  299000    2199.7405    298.59114    137.08275    120758.82    8748.4111    9325.8754   -577.46431    3020.6974    4548.5595    866.42201            0   -9013.1432   -3053.1403    9820.8797   -15780.883    123.58074    3300.3184    49.427991   0.99766533 
  300000     2206.641    298.23566   -528.64347     121326.7     8885.714    9314.7727   -429.05868    3165.2609    4513.2221    900.07573            0   -9007.6174   -3011.9343    9780.8674   -15776.551    117.51083     3329.653     49.50535   0.99299564 
[...]
 1932000    13793.111    300.46883    409.43984    119981.12    8748.0017    9384.5213   -636.51963    3058.3956    4553.9855    916.66047            0   -9165.5612   -3138.1658    9741.5374   -15768.933    119.94224    3304.3648    49.321655    1.0041321 
 1933000    13800.341    295.11133   -36.351988    120304.96    8621.1399    9217.1907   -596.05087    3177.2884    4494.4619    890.99002            0   -9158.7913   -3091.4017    9699.6688   -15767.058    116.30092    3320.8482    49.365989    1.0014291 
 1934000    13807.489    301.12943    857.24838    120702.49    8619.5559    9405.1537   -785.59779    2996.7186    4509.2332    911.10151            0   -9202.6511   -3083.3663    9654.8961   -15774.181    108.87296    3266.6782    49.420304   0.99813092 
 1935000     13814.77    301.64216   -293.43462     122354.8    8833.3523    9421.1678   -587.81551    3102.6564    4593.2814    858.21767            0   -9141.9709    -3077.476    9716.1781   -15780.673     118.7647    3335.9899    49.644789   0.98465194 
 1936000     13821.86    301.85743   -238.72048    122478.31    8743.6155    9427.8912   -684.27574    3090.4404    4564.2954    858.95503            0   -9197.9666   -3077.8083    9654.8089   -15774.967    103.66669    3295.5344    49.661489   0.98365895 
 1937000    13829.042    296.98664   -454.98187    121449.65    8621.9078    9275.7622   -653.85444    3124.6008    4541.7397     859.2767            0   -9179.4716   -3100.9137    9692.3436   -15770.902    107.85389    3316.2732    49.522066   0.99199046 
 1938000    13836.482    301.87414    458.16767    121402.54     8850.694    9428.4133   -577.71936    3169.3403    4526.1263    867.31562            0   -9140.5015   -3043.3434    9674.6503   -15771.808    109.37908    3336.1702    49.515663   0.99237533 
 1939000    13843.714    295.69714    937.99892    120872.33    8558.2768    9235.4873   -677.21052    3114.1655    4506.4823    856.07349            0   -9153.9317   -3097.7462    9710.3839   -15766.569    115.49425    3342.3423    49.443472   0.99672847 
 1940000    13850.808    299.56547   0.35417472    120389.23    8659.1004    9356.3065   -697.20616    3109.4201    4516.6592    857.01881            0   -9180.3043   -3077.9105     9677.724   -15780.118    119.75733     3327.106    49.377512    1.0007282 
 1941000    13858.004    299.08223    379.57755    119842.82    8581.4378    9341.2137   -759.77588    3072.8188    4488.8176     843.3816            0   -9164.7938   -3108.4407    9716.3843   -15772.737    118.11138    3322.0575    49.302696    1.0052909 
 1942000    13865.185     294.7999   -192.30672    121532.65    8542.2919    9207.4641   -665.17217     3115.226    4521.0776    869.35437            0   -9170.8301   -3096.1485    9700.4717   -15775.153    118.48961    3320.6162    49.533345   0.99131295 
 1943000    13872.231    294.82893    80.152016    120511.98    8474.8781    9208.3705   -733.49246     3059.075    4521.2894    832.43735            0   -9146.2942   -3061.3009    9682.3414   -15767.335    103.18718    3302.1586    49.394289   0.99970882 
 1944000    13879.408    296.53181   -778.99064    121014.25    8571.0896    9261.5566   -690.46707    3099.5607    4557.7058    839.91462            0   -9187.6481   -3061.9844    9653.0448   -15778.709    120.38252    3294.5284    49.462816   0.99555954 
 1945000    13886.544    296.69605    897.69305    121275.55    8707.0891    9266.6864    -559.5973    3109.8136    4605.7369    867.10416            0   -9142.2519   -3074.3919    9702.2351   -15770.095    130.21671    3336.1703    49.498392   0.99341447 
 1946000    13893.638    299.33356     463.7518    120451.61    8665.7235    9349.0635   -683.34001    3070.9386    4522.6478    870.30605            0   -9147.2324   -3067.9374    9692.8595   -15772.155    108.37416    3314.8565     49.38604    1.0002099 
 1947000     13900.82    295.68933     2.548061    120342.01    8454.6173    9235.2434   -780.62606    3098.5805    4509.2718    859.12309            0   -9247.6014   -3142.0103    9678.4487    -15784.04    133.38482    3310.5325    49.371056    1.0011208 
 1948000    13908.006    297.85884    211.72423    120596.85    8561.7576    9303.0037   -741.24608    3096.4804    4548.5601    877.86124            0   -9264.1478   -3164.2839    9674.2975   -15774.161    111.56471    3317.7645    49.405881   0.99900531 
 1949000    13915.106    299.38398   -78.804544    120636.29    8681.5435    9350.6381   -669.09457    3089.0323    4505.9029    913.70976            0   -9177.7395   -3046.1087    9645.5753   -15777.206    102.39962    3301.6472    49.411267   0.99867867 
 1950000    13922.231    302.88592    1256.7254    119965.85    8685.8851     9460.014   -774.12887    3045.3771    4507.5829    850.65262            0   -9177.7415   -3123.0315    9718.4493   -15773.159     121.7242    3316.8149    49.319562    1.0042599 
 1951000    13929.312    298.75723   -423.03624    121480.58    8767.8726    9331.0629   -563.19029    3141.2595    4528.0529    875.87049            0   -9108.3731   -3065.6091    9730.7364     -15773.5    103.04377    3332.7002     49.52627   0.99173785 
 1952000    13936.519    301.14837    315.62319     119963.9    8637.5308    9405.7452   -768.21437    3061.3051     4487.236    843.62362            0   -9160.3792   -3086.9618    9691.8686   -15765.286    106.14222    3289.7913    49.319294    1.0042762 
 1953000    13943.739    298.18274    574.37589    120638.83    8664.1513    9313.1198   -648.96852    3095.7238    4536.4523    865.92431            0    -9147.069    -3079.112    9703.0009   -15770.958    105.66222    3301.1992    49.411613   0.99865767 
 1954000    13950.954    297.51714   -903.92091    120987.08    8624.9091    9292.3313   -667.42223    3131.5076    4548.3379    852.36941            0   -9199.6371   -3104.7725      9680.56   -15775.425    116.04042    3315.0159    49.459113   0.99578314 
 1955000    13958.414    296.42999   -194.23848    119945.45    8732.0516    9258.3766   -526.32501    3163.9189     4612.205    898.09951            0   -9200.5484   -3058.6636    9629.5568   -15771.442    112.89182    3329.6752    49.316766    1.0044307 
 1956000    13965.572    300.12092    172.45071    121228.05    8693.0037    9373.6551   -680.65147    3123.6933    4514.5598    845.49724            0   -9164.4019   -3032.7859    9638.8385   -15770.454    104.95223    3313.9678    49.491928   0.99380374 
 1957000    13972.807    301.68325    74.581908    120349.41    8797.8832    9422.4512   -624.56802    3104.0182    4576.3109    890.77917            0   -9195.6763   -3122.6424    9707.9851   -15781.019     113.9189    3311.6708    49.372069    1.0010592 
 1958000    13980.077    302.59136   -47.056754     120738.5    8794.7869     9450.814   -656.02711     3095.662    4578.7136    887.52403            0   -9217.9267   -3080.0128    9636.2311   -15774.145    114.19361    3317.5543    49.425217   0.99783328 
 1959000    13987.233    295.01761   -340.11781    119872.77    8380.4691    9214.2638   -833.79464     3061.052    4552.2195    804.34497            0   -9251.4111   -3152.1722    9681.2721   -15780.511    117.18044    3270.6626    49.306803    1.0050397 
 1960000    13994.392    297.85577    323.72866    120411.04    8672.0314    9302.9079   -630.87645    3179.6225    4542.6001    850.62972            0   -9203.7288   -3074.6833    9650.3382   -15779.384    106.70257    3355.9023    49.380494    1.0005469 
 1961000    14001.457    294.37454   -586.25961    121228.31    8495.0199    9194.1788   -699.15888    3109.8906    4556.3009    809.63011            0   -9174.9805   -3120.3662    9723.2649   -15777.879    118.44135    3312.1242    49.491963   0.99380161 
 1962000    14008.469    297.52941    652.21313    121580.04    8766.3814    9292.7146   -526.33323    3133.5771    4642.2133    870.67895            0   -9172.8026   -3092.7976    9697.6708   -15777.676     112.8143    3336.4255    49.539782   0.99092656 
 1963000    14015.553    299.22252    603.67406    120532.97    8740.0026    9345.5952   -605.59264    3156.2961    4545.5032    845.67558            0   -9153.0675   -3060.3306     9675.844   -15768.581    131.46599    3352.8881    49.397157   0.99953473 
 1964000    14022.618    299.49108    251.11791     119157.7    8712.3735    9353.9833   -641.60985    3128.7002    4648.7701    888.68355            0   -9307.7637   -3151.7907    9619.5544   -15775.527    120.29133    3331.7689    49.208565     1.011071 
 1965000    14029.699    293.74143    154.80731    120719.88    8507.3784    9174.4047   -667.02635    3114.8336    4553.0586    875.06747            0   -9209.9861   -3100.1811    9668.1046   -15777.909    105.79964    3323.3392    49.422677   0.99798717 
 1966000    14036.704     299.2695    -103.0825    120358.97    8681.6997    9347.0627   -665.36306    3198.4563    4479.8188    872.69048            0   -9216.3286   -3070.1795    9631.7305    -15777.88    102.56695    3346.1689    49.373375    1.0009797 
 1967000    14043.727    298.46141    765.39669    120756.71    8559.5961    9321.8236   -762.22746    3070.9283    4481.5394    828.83521            0   -9143.5304   -3063.3046    9690.9346    -15771.16    104.39442    3319.4485    49.427703   0.99768277 
 1968000     14050.76    299.30708    120.30824    119298.27    8601.1856    9348.2363   -747.05073    3136.4365    4508.0349    843.44934            0   -9234.9715   -3202.1564    9734.4222   -15767.237    113.21783     3323.481    49.227908    1.0098796 
 1969000    14057.865    301.80878   -230.57037    119309.04     8913.835    9426.3719   -512.53694    3240.8007    4611.3539    875.72876            0   -9240.4203    -3114.284    9648.0945   -15774.231    122.72803    3389.3094     49.22939    1.0097884 
 1970000    14065.224    298.63085    522.56495    120191.81    8557.9694    9327.1158   -769.14645    3067.6539    4495.6848    863.59708            0   -9196.0822   -3080.9957    9662.0997   -15777.186    116.32846    3298.9178    49.350508    1.0023718 
 1971000    14072.588    299.54522   -228.15635    121032.73    8696.9245    9355.6741    -658.7496    3138.1394    4525.6329    850.43429            0   -9172.9562   -2994.5409    9598.7943    -15777.21    104.40746    3313.5179    49.465334   0.99540752 
 1972000    14079.751    299.08725    420.24573    119965.66    8573.9891    9341.3706   -767.38153    3079.7026    4465.3151    899.28972            0   -9211.6889   -3068.9298     9626.838   -15769.597    111.72057     3311.774    49.319536    1.0042614 
 1973000     14086.87    300.71705   -360.87493    121492.33    8807.9534    9392.2738   -584.32034    3097.5577    4595.1709    845.70969            0   -9122.7586   -3029.0798    9682.8012    -15776.48    106.50031    3295.5918    49.527866   0.99164197 
 1974000     14093.93    298.21188   -53.623494    122029.62    8721.0742    9314.0301   -592.95583    3096.9328    4541.7872    874.31122            0   -9105.9871   -3042.0675     9710.667   -15774.587    109.67173    3310.3718    49.600771   0.98727576 
 1975000    14101.085     298.2665   -710.42037    121467.36     8806.899     9315.736   -508.83697    3130.5881    4646.4491    848.45916            0   -9134.3334    -3032.892    9673.2996   -15774.741    117.40982    3322.6051    49.524473   0.99184577 
 1976000    14108.302    299.03019    261.92336    120977.63    8777.6606    9339.5883   -561.92762    3158.1811    4564.4488    862.41447            0    -9146.972   -3051.8188    9679.4704   -15774.624    109.26028     3318.527    49.457826   0.99586091 
 1977000    14115.421    295.54464   -418.29111     120669.7    8651.6784    9230.7245   -579.04617    3048.5988    4636.6281    878.43249            0   -9142.7056   -3082.9518    9709.4501   -15769.204    101.36121      3307.04    49.415828   0.99840214 
 1978000    14122.657    298.61725   -624.94783    120994.81    8790.8598    9326.6909   -535.83103    3181.2085    4539.8188    884.14507            0   -9141.0034   -3070.7514    9704.6267   -15774.879    105.37056    3353.4544    49.460168   0.99571944 
 1979000    14129.809     295.3855     215.3023     121102.3    8531.9135    9225.7541    -693.8406    3121.3833     4555.391    835.22241            0   -9205.8373   -3083.6768     9648.397   -15770.558     118.6495    3331.9767     49.47481   0.99483566 
 1980000    14136.932    299.64544    243.69921    121226.53    8688.5937    9358.8045   -670.21076    3070.7365    4574.8413     886.2361            0   -9202.0246   -3063.8207    9632.3143   -15770.518     110.6479    3287.3812    49.491721   0.99381621 
 1981000    14144.095    297.52379   -36.499972    120692.48    8713.6242     9292.539   -578.91477    3125.8491    4584.2608    918.85801            0   -9207.8827   -3150.8479    9709.5669   -15766.602    118.06249    3339.7587    49.418937   0.99821375 
 1982000    14151.312    298.58184    948.40557    120510.39    8803.1985     9325.585   -522.38651    3108.1487    4634.2376    867.76791            0   -9132.5407   -3100.1493    9726.8064   -15759.198    104.92556    3324.3066    49.394072   0.99972201 
 1983000    14158.465    296.15941   -1145.3988    121656.16    8714.0534    9249.9254   -535.87202    3183.7173    4576.4704    844.64893            0   -9140.7086   -3077.7722    9701.7465   -15764.683    121.44376     3364.257    49.550119   0.99030652 
 1984000    14165.569    297.22273     565.4242    119650.18    8525.8969    9283.1361   -757.23914    3062.3139    4626.7023    829.30997            0   -9275.5652   -3158.9488    9658.1755   -15774.792    115.87768    3306.0792    49.276265    1.0069094 
 1985000    14172.822    299.48815    -321.6219    121497.11    8792.6985    9353.8918    -561.1933     3149.735    4549.3094     858.8725            0   -9119.1102   -3063.3634    9706.2944   -15762.041    119.43614    3339.3309    49.528516   0.99160294 
 1986000    14180.306    299.49629    84.027766    121715.33    8970.8549    9354.1459   -383.29096    3164.6146    4594.4177    896.09264            0   -9038.4159   -3012.9647    9738.9875   -15764.439    110.69648    3361.8081    49.558151    0.9898251 
 1987000    14187.676    299.41415    678.53103    120448.25    8762.5873    9351.5804    -588.9931    3147.1458    4551.1547    839.39422            0   -9126.6878   -2979.7132    9627.2136   -15774.188    106.00558    3338.4411    49.385581    1.0002377 
 1988000    14195.201    301.87595   -61.511046    120789.83     8736.316    9428.4696    -692.1536    3068.1282    4546.7387    897.01966            0   -9204.0402   -3138.7979    9709.0825   -15774.325    103.41645    3294.6147    49.432221    0.9974092 
 1989000    14202.362    294.21731    783.06224     120371.8    8500.2744    9189.2678    -688.9934    3087.6537    4530.6618     847.3373            0   -9154.6462    -3047.632    9672.7219   -15779.736    103.42638    3299.5039     49.37513     1.000873 
 1990000    14209.595    300.85802    538.74829    121081.09    8813.5233    9396.6769   -583.15361    3154.7199    4575.4257    891.07594            0   -9204.3752   -3082.4783    9653.1276   -15775.024    119.42028    3316.7035    49.471921   0.99500992 
 1991000    14216.739    299.36485   -69.744509    120013.64    8778.9351    9350.0408   -571.10573    3137.1095    4620.5776    849.39748            0   -9178.1903   -3134.4027    9726.3383   -15770.126    126.72059    3338.5812     49.32611      1.00386 
 1992000    14223.777    297.54426    301.16098    121534.17    8881.3559    9293.1783   -411.82248      3124.46    4680.0787    873.64481            0    -9090.006   -3056.7986    9744.4519   -15777.659     129.5742    3345.7249    49.533551   0.99130054 
 1993000    14230.803    293.58497     609.8245    120145.02    8584.9263    9169.5181   -584.59175    3095.2804    4596.6489     881.8577            0   -9158.3788   -3066.2111    9680.1928   -15772.361    118.10595    3306.5713    49.344103    1.0027623 
 1994000    14237.919    298.38389    347.36976    120248.37    8625.8851    9319.4024   -693.51737    3050.2738    4549.8366    858.42859            0   -9152.0564   -3059.6802    9680.6898   -15773.066    143.74396    3272.3956    49.358247    1.0019004 
 1995000    14245.096    296.06992   -216.09685    122087.88     8671.754    9247.1303   -575.37632    3129.3348    4558.3328    882.53224            0   -9145.5762    -3049.896    9671.0181   -15766.698    110.89192    3319.9411    49.608663   0.98680465 
 1996000    14252.158    295.48455    58.879935    120568.82    8623.3564    9228.8475    -605.4911    3133.9331    4567.8969    894.87772            0   -9202.1988   -3106.4384    9681.4674   -15777.228     144.9645    3322.1584    49.402053   0.99923754 
 1997000    14259.316    297.81342    403.96121    120192.29    8598.8313     9301.585   -702.75366    3091.7885    4521.3351    874.32747            0   -9190.2047   -3084.3958    9667.7339   -15773.543    124.24024    3317.6761    49.350573    1.0023679 
 1998000    14266.425    300.92607    599.41851    119962.16    8846.6469     9398.802   -552.15515    3158.5581    4619.8354    862.19959            0   -9192.7483   -3114.1305    9696.4554   -15775.073    105.63571    3343.7819    49.319056    1.0042908 
 1999000    14273.738     297.5304    554.65127     120560.1    8711.5079    9292.7456   -581.23765     3189.589    4553.4875    866.38886            0    -9190.703   -3075.6159    9660.7251   -15775.812    109.53428    3351.1159    49.400863   0.99930977 
 2000000    14280.935    297.95906    290.71724    120386.96    8613.9391    9306.1336    -692.1945    3090.0175    4605.6454    849.50581            0   -9237.3632   -3102.7156    9643.6621    -15778.31    115.61965     3320.038    49.377202     1.000747 
Loop time of 14280.9 on 28 procs for 2000000 steps with 10479 atoms

Performance: 12.100 ns/day, 1.983 hours/ns, 140.047 timesteps/s
99.8% CPU use with 28 MPI tasks x 1 OpenMP threads

MPI task timing breakdown:
Section |  min time  |  avg time  |  max time  |%varavg| %total
---------------------------------------------------------------
Pair    | 9870.3     | 10304      | 10865      | 243.4 | 72.15
Bond    | 272.64     | 279.34     | 283.09     |  13.6 |  1.96
Kspace  | 1614.5     | 2189.4     | 2632.1     | 539.8 | 15.33
Neigh   | 560.4      | 561.64     | 562.55     |   2.4 |  3.93
Comm    | 457.96     | 474.51     | 494.87     |  51.5 |  3.32
Output  | 157.31     | 171.38     | 188.14     |  65.7 |  1.20
Modify  | 168.9      | 213.55     | 244.26     | 115.6 |  1.50
Other   |            | 87.43      |            |       |  0.61

Nlocal:    374.25 ave 401 max 343 min
Histogram: 1 2 1 3 2 11 2 3 0 3
Nghost:    8079.32 ave 8157 max 8022 min
Histogram: 5 3 3 5 3 1 0 1 5 2
Neighs:    187119 ave 204859 max 171395 min
Histogram: 2 2 2 3 10 2 1 4 1 1

Total # of neighbors = 5239342
Ave neighs/atom = 499.985
Ave special neighs/atom = 7.787
Neighbor list builds = 81605
Dangerous builds = 0
unfix 				1

write_restart	    restart.${simname}
write_restart	    restart.npt
PPPM initialization ...
  using 12-bit tables for long-range coulomb (src/kspace.cpp:332)
  G vector (1/distance) = 0.193985
  grid = 15 15 15
  stencil order = 5
  estimated absolute RMS force accuracy = 0.0149283
  estimated relative force accuracy = 4.4956e-05
  using double precision MKL FFT
  3d grid and FFT values/proc = 1352 192
write_data 		    data.${sysname}_${simname}
write_data 		    data.mixture_${simname}
write_data 		    data.mixture_npt
PPPM initialization ...
  using 12-bit tables for long-range coulomb (src/kspace.cpp:332)
  G vector (1/distance) = 0.193985
  grid = 15 15 15
  stencil order = 5
  estimated absolute RMS force accuracy = 0.0149283
  estimated relative force accuracy = 4.4956e-05
  using double precision MKL FFT
  3d grid and FFT values/proc = 1352 192
Total wall time: 3:58:01
