ITEM: TIMESTEP
20000000
ITEM: NUMBER OF ATOMS
10479
ITEM: BOX BOUNDS pp pp pp
1.08224 48.8568
1.14437 48.8836
1.12017 48.8918
ITEM: ATOMS id mol type x y z ix iy iz vx vy vz fx fy fz 
357 1 1 2.70064 3.55481 4.87928 0 1 -1 0.00396866 -0.00584137 -0.00162581 30.7946 -5.67789 -5.53112 
4360 1 3 5.4319 4.06836 5.30578 -1 1 -1 0.0205955 -0.00495855 0.0284759 -16.8873 -6.94568 5.04878 
4354 1 2 6.49149 4.18936 5.36832 -1 1 -1 -0.00408972 -0.000913237 -0.0046436 10.2176 56.4755 -21.3594 
4654 1 3 4.69074 4.63805 8.25556 -1 1 -2 0.0154337 -0.00387275 0.0105325 6.84398 0.228672 22.01 
4646 1 2 4.84987 3.65189 8.73694 -1 1 -2 -0.000175565 -0.0125275 -0.000477185 33.3671 23.946 11.5742 
4655 1 3 4.54986 3.06046 7.95001 -1 1 -2 -0.0125161 0.0164057 0.00312458 -11.042 -39.4562 -22.6432 
4353 1 1 6.76562 5.64344 5.2423 -1 1 -1 -0.0033606 0.00445633 0.00194088 -20.7491 -23.5236 0.281293 
35 1 2 3.10032 7.77814 3.14707 -1 1 0 -0.00180639 -0.00489067 0.00145946 20.9666 -13.9825 -4.03421 
4368 1 3 6.91052 3.87022 6.29295 -1 1 -1 -0.00808095 0.00497006 -0.0139819 3.2413 -14.2124 16.0734 
4362 1 3 8.41614 5.76091 6.48305 -1 1 -1 -0.000789639 -0.0116753 -0.00342356 -2.63441 2.75541 0.188473 
4364 1 3 7.62937 7.86819 4.46038 -1 1 -1 -0.0266518 0.0402203 -0.0359191 -6.42976 8.69075 -5.14857 
36 1 2 3.94163 7.74943 4.47931 -1 1 0 -0.000333327 -0.00340658 0.000190559 -48.3946 32.7117 47.9151 
42 1 3 2.05794 7.45673 3.20075 -1 1 0 0.0190496 0.0200895 0.00432445 2.85823 -10.9512 14.6858 
366 1 3 2.5317 2.9827 6.85689 0 1 -1 0.00469015 0.00562758 0.00325184 -13.4238 9.28143 -13.2586 
37 1 1 3.17429 8.36384 5.65317 -1 1 0 0.000887276 -0.00027037 -0.000523813 -7.95825 -6.66667 -48.2339 
44 1 3 4.22445 6.76703 4.85732 -1 1 0 -0.00288036 0.0172962 0.00721037 -0.0772468 -8.10387 -14.3225 
43 1 3 4.82914 8.33899 4.36055 -1 1 0 -0.00101483 -0.0232946 -0.00217567 12.153 5.59371 -6.73269 
358 1 2 1.89354 3.371 6.01746 0 1 -1 0.0021031 -0.0017862 0.00282517 -8.64787 15.361 20.3548 
6390 1 2 8.77475 1.51041 3.49886 1 0 -1 -0.00111151 0.00846207 0.011005 11.2132 -10.8892 51.3313 
41 1 3 3.64421 7.16552 2.4192 -1 1 0 -0.0229025 -0.0177536 -0.00670015 -5.30844 -4.81307 2.91216 
4359 1 3 6.94271 3.72313 4.5082 -1 1 -1 -0.0188586 -0.00220992 -0.021523 6.60479 -11.0798 -3.53569 
6398 1 3 8.82002 2.22229 2.71338 1 0 -1 0.0274163 -0.0113006 0.00589173 -3.91782 11.6938 -19.1306 
33 1 1 3.0607 9.07985 2.56227 -1 1 0 -0.00773517 0.00120491 -0.00723847 -19.6436 -0.431781 -23.8692 
7276 1 3 6.13186 8.97487 6.12286 -1 1 -2 -0.000444929 0.00219321 -0.00665609 -1.85497 7.28041 -3.86285 
6610 1 2 6.7208 6.55404 1.6027 1 0 -2 -0.00379929 0.00536034 0.00343397 -18.3923 72.9039 -7.26576 
360 1 3 5.28181 2.25484 2.83667 0 1 -1 -0.00597928 -0.00548242 -0.00364269 4.3171 10.9369 0.909596 
34 1 2 2.26754 9.03297 1.30263 -1 1 0 -0.00833629 -0.000145835 -0.00680692 37.7932 14.6859 -8.56405 
354 1 2 4.26434 1.89165 2.77617 0 1 -1 0.0062603 -0.00515603 -0.00553255 -4.65814 -27.1742 28.9381 
356 1 2 2.05363 3.97828 3.68029 0 1 -1 -0.00195541 -0.00148092 0.00590398 31.9154 40.3388 0.247349 
6399 1 3 8.75361 2.0722 4.47218 1 0 -1 -0.0325035 -0.0127069 0.0112458 6.6487 -10.9622 -17.2298 
353 1 1 3.43089 2.7765 1.96487 0 1 -1 -0.00334855 -0.000774695 0.00425852 -5.1439 17.4256 21.885 
6615 1 3 7.38872 6.47709 2.4567 1 0 -2 -0.0112533 -0.00454245 -0.0126927 -2.0377 -7.60993 6.21175 
363 1 3 1.21844 3.37026 3.45581 0 1 -1 -0.00345937 0.00971284 0.00232266 -11.2113 -21.2166 -13.3637 
359 1 3 3.88846 1.64238 3.8405 0 1 -1 0.00753172 0.00108436 -0.00302272 4.19564 18.5611 -40.332 
355 1 2 3.13162 4.13111 2.52048 0 1 -1 -0.00196285 0.00067485 0.000472579 -64.1087 -68.8344 4.92982 
362 1 3 3.98663 4.63306 2.80114 0 1 -1 -0.0091361 0.00236929 -0.0150597 34.825 20.0346 13.7923 
48 1 3 1.28665 8.65356 1.37142 -1 1 0 -0.00936354 0.00832342 0.0361321 -22.2313 -13.6969 19.7163 
1629 1 3 2.12966 5.24079 8.74148 1 -1 -3 -0.00677365 -0.0070832 -0.0225779 -11.7835 8.56808 -5.3821 
4355 1 2 8.12486 5.99667 5.45441 -1 1 -1 0.00330189 0.00370419 -0.000902865 28.4204 29.6976 1.03892 
4356 1 2 8.39451 7.52612 5.13821 -1 1 -1 8.75281e-06 -0.00638219 -0.00234152 37.7543 -37.7009 9.82547 
4363 1 3 8.41746 8.11871 6.10338 -1 1 -1 -0.0127257 -0.00782944 0.0234312 1.66782 -9.71387 -25.7596 
4361 1 3 8.77146 5.41429 4.78879 -1 1 -1 -0.0112488 -0.00193089 -0.00259457 -6.09272 -3.35978 -0.998155 
1631 1 3 1.20661 6.07342 7.37249 1 -1 -3 -0.0242855 -0.00980696 0.00515457 10.313 3.87492 27.0486 
361 1 3 2.60309 4.65358 1.74993 0 1 -1 -0.0428342 -0.00400011 0.0330843 1.76473 12.7772 -13.2765 
45 1 3 1.33005 9.03896 4.60511 -1 1 0 0.00521784 -0.0416715 -0.000136891 39.4724 8.49207 13.0513 
365 1 3 1.40001 4.37159 6.2729 0 1 -1 0.0183741 -0.015673 -0.00347291 17.2994 -34.1538 -9.49326 
7265 1 1 7.52915 9.02801 8.37905 -1 1 -2 0.00409746 -0.000564615 -0.000158355 11.1812 6.67669 -26.7564 
1630 1 3 1.95215 7.05661 8.82624 1 -1 -3 -0.00143546 -0.00556981 0.00932504 -28.0426 -37.4896 -18.0363 
364 1 3 1.65363 4.96586 3.93522 0 1 -1 -0.0149118 0.0141275 0.0190002 0.45883 0.681821 -7.79004 
6616 1 3 5.86511 7.2597 1.8258 1 0 -2 -0.0331996 -0.0217718 0.0192074 22.1175 -15.8189 4.45421 
367 1 3 1.1672 2.60937 5.72023 0 1 -1 0.00600086 0.00454878 0.0111232 0.332524 1.5057 7.97911 
1622 1 2 1.42939 6.07014 8.48352 1 -1 -3 0.0101527 0.00289054 0.00252901 69.1324 33.7265 -13.4087 
4653 1 3 5.92197 3.42417 9.01067 -1 1 -2 -0.0135335 0.00828631 -0.0185318 -19.9731 11.5043 -10.8971 
6609 1 1 6.08521 5.3263 1.2658 1 0 -2 -0.00368439 -0.00233207 0.00277738 -9.06469 -25.2686 -27.0971 
3961 1 3 9.7113 5.8275 1.46157 0 2 -2 0.0052258 0.000776273 -0.0108127 11.3151 9.46441 10.7202 
895 1 3 15.2441 4.44885 1.98673 1 1 -1 -0.042145 -0.00183377 -0.0130552 1.64366 -1.81731 11.5096 
4357 1 1 9.73684 7.50679 4.42483 -1 1 -1 -0.0029246 -0.00141298 0.00448236 -43.8666 -13.3461 38.0989 
1037 1 3 11.1394 4.80914 7.39474 0 3 -2 -0.00810649 -0.00667592 -0.0191614 -17.2477 4.9244 8.78717 
1036 1 3 10.8735 3.27796 4.16702 0 3 -2 -0.00903199 0.0306596 0.0181264 -3.99384 18.0644 -9.58317 
1030 1 2 10.9228 4.01605 6.689 0 3 -2 -0.00517515 0.00243172 -0.00057938 45.2572 -5.28158 -9.72994 
1029 1 1 12.0159 4.16343 5.70377 0 3 -2 -0.000297297 0.000173124 0.00265765 -42.3537 -25.9607 9.03557 
1028 1 2 11.8631 3.21547 4.5947 0 3 -2 0.00750787 0.00504544 -0.0112658 10.1341 -1.19936 18.8995 
1035 1 3 11.8581 2.13248 4.92147 0 3 -2 0.00381418 0.00592622 -0.00869843 20.5232 29.127 -3.51725 
1034 1 3 13.1606 4.72747 3.68407 0 3 -2 0.00659643 -0.00216022 -0.0247205 8.45091 21.1438 1.64727 
1027 1 2 12.9923 3.68152 3.62483 0 3 -2 0.00510798 0.0052375 -0.00164998 -38.8248 -51.4511 -4.09216 
1033 1 3 12.5955 3.40663 2.6451 0 3 -2 -0.00233749 0.019071 0.0136863 7.34369 8.81404 -4.57452 
1025 1 1 14.1666 2.88435 3.85506 0 3 -2 -0.00115804 0.00241702 -0.00335351 -6.18708 -9.55513 6.00307 
1026 1 2 14.7411 3.00026 5.17169 0 3 -2 0.00958706 -0.00136556 -0.00179859 19.461 -12.0937 -11.9041 
1031 1 3 14.0822 2.83613 6.01921 0 3 -2 0.01126 0.0062008 0.0254411 -12.6664 4.50276 -5.12296 
1032 1 3 15.1621 3.98032 5.12742 0 3 -2 0.00256416 -0.0169137 -0.0041262 9.00475 14.5008 16.7316 
31 1 3 14.3738 3.74094 7.93958 0 2 -2 0.0221022 -0.000796859 0.00415293 9.37384 -12.0944 3.80227 
22 1 2 13.6472 4.08737 8.66064 0 2 -2 0.00250816 -0.00326176 0.00492872 -6.105 64.4951 -39.506 
1040 1 3 15.5294 2.24761 5.27767 0 3 -2 0.0039613 -0.013929 -7.55304e-05 0.225759 9.5064 -0.775912 
30 1 3 12.8139 3.39531 8.70082 0 2 -2 0.0197441 -0.00606312 -0.0100146 -4.35165 -5.49298 9.46976 
2312 1 3 13.8106 7.07059 7.02438 -1 3 -2 -0.0349528 0.0123841 -0.00536172 11.7431 -4.61795 -9.53891 
10097 2 6 16.0073 5.979 6.33961 0 2 -1 0.00482151 0.000477424 0.000125711 -0.225528 -2.32577 -5.85638 
29 1 3 13.2845 5.05506 8.14456 0 2 -2 0.0394887 0.00344958 -0.0225371 9.70952 -31.4123 27.6313 
6326 1 2 14.7517 8.49197 3.31222 -1 2 -2 -0.00114094 0.00232537 0.00437566 19.8767 0.557865 20.7354 
6333 1 3 14.6293 7.38935 3.26442 -1 2 -2 -0.0358636 -0.010046 0.0332368 3.09074 11.3924 -2.31046 
1039 1 3 9.95545 4.01252 6.23846 0 3 -2 0.00205097 -0.00380319 0.0126171 -14.3795 15.0241 -9.3507 
10096 2 6 15.8952 6.21505 8.78837 0 2 -1 -0.00185111 0.00217035 0.00155817 -10.5232 -2.15959 11.4026 
1038 1 3 10.9913 3.054 7.18047 0 3 -2 0.000400015 0.00181816 -0.0139421 7.49518 -5.17183 4.83642 
6334 1 3 14.9286 8.77363 4.36482 -1 2 -2 0.0140223 -0.0237637 0.000244042 3.29823 -2.94091 -7.42835 
4358 1 2 10.1132 8.73872 3.89045 -1 1 -1 -0.00306055 -0.000967456 0.000506884 -9.03337 48.4148 -46.2027 
4367 1 3 11.1495 8.70593 3.55529 -1 1 -1 -0.0183192 0.0141 -0.0155949 2.12575 -4.63068 4.60787 
2305 1 1 12.6636 8.57122 7.68609 -1 3 -2 0.00725062 -0.000853457 0.00303106 18.2823 -0.259982 0.88043 
4366 1 3 9.50172 8.9427 2.94352 -1 1 -1 -0.0107173 0.0311108 -0.00280267 13.2311 -5.22237 32.632 
2306 1 2 12.9634 7.61743 6.64223 -1 3 -2 -0.00587751 -0.00176758 0.00699234 -30.4119 -17.7302 26.2504 
2311 1 3 12.099 6.89809 6.56336 -1 3 -2 0.00486215 -0.00715519 -0.0170298 17.3483 14.7028 -3.30445 
2320 1 3 13.1371 8.12281 5.709 -1 3 -2 0.0100829 -0.0133262 0.00537885 5.65946 3.96498 -10.6688 
2313 1 3 10.7167 8.48365 7.40533 -1 3 -2 0.00766864 0.00229568 0.00496697 -29.2869 -20.5989 -4.54074 
6335 1 3 15.6053 8.83702 2.69775 -1 2 -2 0.00631254 -0.0189192 -0.00272507 -10.2011 -2.88708 0.664086 
894 1 3 14.4377 5.90437 1.26999 1 1 -1 0.00141946 -0.00375394 0.0140822 -2.3039 -19.6695 -1.01802 
10090 2 6 16.7868 3.42798 8.66958 0 2 -1 0.00283518 0.0082435 -0.000772335 -1.00782 3.18847 -4.67714 
10095 2 5 16.7199 6.29407 7.56694 0 2 -1 -0.00304671 0.00263222 -0.00393422 -4.47542 -27.2156 8.6936 
4448 1 3 16.1152 1.51491 7.23732 0 3 -1 -0.0152105 0.000177729 0.0127906 -1.39508 -23.6375 23.4112 
5911 1 3 13.4086 1.76695 1.34571 1 1 -2 0.0022809 0.00508937 0.0158505 9.43291 14.177 0.655514 
4440 1 3 15.0371 1.30882 8.73393 0 3 -1 0.00707609 0.00120052 0.00108324 19.6582 2.70728 -8.00948 
10101 2 7 16.5769 8.93233 7.48497 0 2 -1 -0.00500778 0.00225747 -0.00195918 11.4407 -24.7173 4.98875 
4445 1 3 15.8213 1.1631 3.59916 0 3 -1 0.0161244 0.00456302 0.0127016 4.03151 -5.26903 -10.4392 
38 1 2 2.18128 9.41365 5.28467 -1 1 0 0.00347085 -0.00479861 -0.00192242 -27.3453 -34.8732 -3.721 
1661 1 3 1.80858 13.6419 3.16236 0 2 -1 -0.00170701 -0.0158551 0.00382864 -5.37794 0.158941 -11.9291 
46 1 3 2.71432 10.2536 4.89928 -1 1 0 -0.0147723 -0.0143851 -0.00179404 4.29338 13.8226 -12.2803 
1663 1 3 1.50991 11.9653 2.71602 0 2 -1 0.00975331 -0.00547501 0.0209294 -23.09 -20.0039 -6.40201 
7069 1 3 2.77876 11.4864 7.30114 -1 0 -1 0.0167862 0.00656759 -0.00132823 9.54183 1.71848 -13.7604 
1654 1 2 2.24901 12.6628 2.97055 0 2 -1 0.00355746 -0.00326893 -0.000451724 13.4566 20.2959 38.8634 
6496 1 3 6.77509 15.1506 5.65689 0 2 -2 0.0229661 0.00415182 -0.00427253 -11.0763 3.84617 -11.5902 
6482 1 2 5.85566 15.109 5.02502 0 2 -2 0.00126519 0.00682077 0.00328563 32.0486 -4.24078 2.74785 
5524 1 2 2.58382 15.7024 6.63626 0 2 -2 0.00841831 0.00433824 0.000512686 -2.91746 15.4901 -26.9602 
5530 1 3 2.65577 13.945 5.45553 0 2 -2 -0.0049582 0.0341545 0.00697579 6.76975 -12.7226 2.92017 
6490 1 3 5.56176 14.6817 1.82748 0 2 -2 -0.0460787 0.00656243 0.00120314 -10.5739 -2.7985 -7.78116 
6483 1 2 5.12903 15.0633 2.74889 0 2 -2 -0.00954273 0.000699243 -0.00949356 -24.3879 13.6038 -8.79893 
6488 1 3 5.19523 15.9412 5.32052 0 2 -2 -0.0219239 -0.0213942 -0.0219414 -0.954788 -7.59066 -6.63098 
6484 1 2 4.37626 16.414 2.52411 0 2 -2 -0.00377668 -0.00219604 0.00224874 2.16398 -57.9238 -31.1586 
5523 1 2 1.89349 14.6562 5.70928 0 2 -2 0.00117939 0.0112226 -0.0057416 38.1831 2.03562 -4.60051 
5525 1 1 3.76477 15.2321 7.3264 0 2 -2 0.000342766 -0.00507133 -0.000367269 -1.30203 -12.0193 -3.53613 
6489 1 3 4.34549 14.4089 3.17706 0 2 -2 -0.00585102 -0.00842863 -0.0202422 19.1812 -8.49238 -6.0772 
6491 1 3 3.94381 16.2989 1.51227 0 2 -2 -0.00374727 0.00152263 -0.00243841 10.7041 9.21534 3.46824 
7279 1 3 5.73401 11.7519 4.45744 -1 1 -2 0.0124792 -0.0136554 0.00841293 13.0634 -0.978134 2.1942 
7277 1 3 6.54636 10.2398 3.99736 -1 1 -2 0.00260782 0.0221597 -0.0292613 3.89738 4.06019 6.21664 
7270 1 2 6.68499 11.185 4.55135 -1 1 -2 0.00479793 -0.00577604 -0.00269519 1.42851 -12.1354 34.3378 
7278 1 3 7.53642 11.717 4.11028 -1 1 -2 -0.00246528 -0.0237862 -0.016281 -5.31574 3.22913 0.331579 
6481 1 1 6.23488 15.1642 3.61228 0 2 -2 -2.90957e-06 0.00115941 0.00620746 7.65097 13.2368 34.9843 
7269 1 1 6.98625 10.9069 6.01835 -1 1 -2 0.00285488 0.00118869 0.000682933 -19.254 -3.0842 -47.5356 
7268 1 2 6.01549 9.96861 6.57942 -1 1 -2 0.000794279 0.00219069 0.00509059 26.5423 -13.9458 11.6111 
5529 1 3 1.56848 15.0273 4.73579 0 2 -2 0.0144295 -0.00160404 0.0158984 -11.3326 10.995 8.43233 
5532 1 3 2.86423 16.6003 6.03837 0 2 -2 -0.00751969 0.0104834 -0.00148935 -5.38545 -10.7268 8.31919 
5531 1 3 1.86425 15.9493 7.38152 0 2 -2 -0.00333628 0.0365777 -0.0180706 -10.7569 13.0809 12.7787 
6487 1 3 5.4483 14.1105 5.19218 0 2 -2 -0.0137632 0.00796639 -0.00300237 -11.7246 3.80992 4.86389 
6485 1 1 3.22727 16.3436 3.37971 0 2 -2 0.00542684 0.00523331 0.005599 10.2346 9.01186 14.0214 
7275 1 3 5.01778 10.3549 6.37617 -1 1 -2 0.00465986 0.0212076 -0.00597252 -4.54147 -0.614157 5.48572 
5526 1 2 4.40106 16.2254 8.15832 0 2 -2 0.00023066 -0.00425095 -0.00757987 2.97501 14.9279 27.4086 
7267 1 2 6.29952 9.78461 8.10638 -1 1 -2 0.0078023 -0.0052196 -0.00329299 11.6905 25.7748 -24.369 
1662 1 3 2.65609 12.4151 3.98061 0 2 -1 0.0115627 0.0282775 -0.0042827 10.7097 -7.50459 -25.2174 
7070 1 3 3.94009 12.5613 8.28546 -1 0 -1 0.00128401 -0.00532634 -0.0119507 -10.2094 -7.0349 -7.93683 
7062 1 2 2.97729 12.0067 8.22518 -1 0 -1 -0.000100139 0.0025641 0.00226914 -55.4101 39.3392 29.2913 
1653 1 1 3.19088 12.7659 1.88472 0 2 -1 -0.000200984 -0.006469 0.00538637 -1.62651 2.11216 -3.88923 
6495 1 3 1.97134 17.056 1.96117 0 2 -2 0.0192991 -0.0195993 -0.0163825 -14.9859 2.35848 9.74206 
5533 1 3 5.30697 15.8325 8.63654 0 2 -2 -0.00335964 0.0260737 -0.00286628 0.175657 -2.69521 -11.1559 
7071 1 3 2.05249 12.7094 8.43344 -1 0 -1 -0.00481737 -0.0114728 -0.004611 50.1155 -27.7835 -13.297 
460 1 3 9.01887 13.9166 1.76677 2 0 -2 0.0200089 0.0117754 -3.00082e-05 -11.9529 12.9406 9.68205 
1583 1 3 8.99425 13.186 5.05763 -2 0 -2 -0.0144432 0.00444824 -0.00559111 -25.6818 -2.91625 -26.9036 
7274 1 3 5.4977 9.20711 8.48942 -1 1 -2 -0.0135192 -0.0230182 -0.00126743 -21.0719 -2.47012 14.6786 
47 1 3 1.60662 9.7343 6.13261 -1 1 0 0.0239536 0.0016353 0.00475792 5.38773 3.3113 19.3759 
7273 1 3 6.35291 10.8345 8.46088 -1 1 -2 -0.0122571 0.0184417 -0.0205135 -0.474272 -16.3036 14.8328 
8495 1 3 6.65353 13.4921 8.89278 -1 1 -1 -0.00385835 -0.012599 -0.0267487 6.61496 6.58636 14.7558 
5534 1 3 3.77265 16.5306 9.01065 0 2 -2 -0.0056797 0.0111194 0.012356 -6.30038 -6.58221 -9.72098 
4600 1 3 11.9843 16.6562 3.22972 1 1 -3 -0.00792482 0.00134832 0.00550615 13.1013 -2.80532 -10.731 
4365 1 3 9.99926 9.57781 4.61286 -1 1 -1 -0.0247657 0.0147446 0.00265462 -1.55317 -13.0547 -4.89206 
6325 1 1 13.5278 9.1098 2.93684 -1 2 -2 0.00662651 0.00215618 -0.00724885 -23.9485 11.8171 -19.6931 
459 1 3 9.13899 15.6262 2.54082 2 0 -2 0.00409387 -0.0100415 0.00773469 -6.06752 -7.36339 2.13852 
6332 1 3 12.4676 10.6826 2.18489 -1 2 -2 0.0124931 -0.0137936 0.0322655 -15.1063 4.17524 7.83049 
6331 1 3 14.0773 10.968 2.0378 -1 2 -2 -0.00532923 -0.00132751 0.0325002 26.1228 4.17931 -0.294463 
1581 1 3 9.25376 14.2724 6.52524 -2 0 -2 -0.0244487 -0.0151375 0.00211966 -2.74234 -15.2499 -27.1876 
1582 1 3 9.60497 12.5662 6.59855 -2 0 -2 0.0162218 0.0186948 -0.00388495 -1.69256 -5.23042 -10.2334 
1574 1 2 9.58656 13.3993 5.88315 -2 0 -2 -0.00897164 -0.00375562 0.000522359 57.5501 27.7802 50.8032 
1579 1 3 11.2042 14.0902 7.39292 -2 0 -2 -0.0065629 0.00583413 -0.00813727 -9.91466 4.56206 21.3007 
1573 1 1 10.9968 13.6743 5.44353 -2 0 -2 -0.00410091 0.00761655 -0.00400664 -19.742 -2.74825 13.6556 
1572 1 2 11.8716 13.9285 6.59003 -2 0 -2 0.00394679 0.00144428 0.00023086 -13.0407 -15.6232 -8.32271 
1580 1 3 12.5003 13.0534 6.85374 -2 0 -2 0.00744477 0.021955 0.0104573 -9.35123 11.7575 -9.28151 
2307 1 2 11.4336 9.23681 7.47077 -1 3 -2 -0.00363562 0.0012344 0.000301299 -3.78253 13.6261 10.976 
1577 1 3 12.138 15.9772 5.75099 -2 0 -2 -0.0310016 0.0244001 0.0266179 21.9338 -32.49 24.952 
6324 1 2 13.3843 10.574 2.74486 -1 2 -2 0.00676996 0.00502521 0.0022166 -15.5505 -46.9787 -10.323 
1571 1 2 12.6567 15.2154 6.45637 -2 0 -2 0.00798886 -0.00665366 0.00138393 19.8418 47.8746 -15.7787 
1578 1 3 12.8888 15.6891 7.44677 -2 0 -2 -0.0275277 -0.020355 0.0123697 -17.2212 -8.40406 -14.2471 
1569 1 1 13.9772 14.8279 5.99796 -2 0 -2 -0.000397858 -0.00549725 -0.00323753 22.6141 17.634 -7.78099 
6323 1 2 13.3233 11.2955 4.07594 -1 2 -2 -0.00509823 -0.000955372 -0.0057655 47.6165 -0.341779 21.1676 
6330 1 3 12.8792 10.6882 4.9137 -1 2 -2 -0.0143957 0.0023839 0.000350728 -7.14119 9.94022 -25.7239 
6329 1 3 12.8511 12.2866 3.93898 -1 2 -2 -0.00318441 0.0192109 0.0190571 3.40005 -6.64029 8.02864 
6322 1 2 14.8329 11.6591 5.88954 -1 2 -2 0.011706 0.0016659 0.00505172 53.6087 6.07177 -3.89194 
6321 1 1 14.7701 11.4321 4.43916 -1 2 -2 -0.00576753 -0.00172346 0.00316056 -43.7411 29.0132 19.9832 
458 1 3 11.2765 14.5398 2.79698 2 0 -2 -0.0147709 -0.0216782 0.0182373 -6.84017 6.67359 -11.652 
6328 1 3 14.2865 12.4941 6.32628 -1 2 -2 0.0262318 0.00167443 -0.0400399 -11.7406 -5.0001 -17.4405 
6327 1 3 14.5063 10.7112 6.26917 -1 2 -2 -0.0270912 0.0289022 0.0171386 -1.39944 -7.37649 22.8731 
452 1 2 9.4342 14.9371 1.74174 2 0 -2 -0.00360473 -0.00354391 -0.000825779 -13.3005 -8.67207 -14.5108 
451 1 2 10.9091 14.738 1.76338 2 0 -2 -0.00170106 -0.00327057 -0.00364572 42.8241 -21.175 11.4492 
1570 1 2 14.9806 15.8861 5.66894 -2 0 -2 -0.00266568 0.00430518 0.00182795 -26.6746 -10.2346 -20.0243 
1575 1 3 16.0057 15.4932 5.72686 -2 0 -2 0.0038818 0.00607343 -0.000838445 -6.74905 -5.35523 -9.69501 
7448 1 3 15.035 14.475 8.5216 1 1 -2 -0.0113347 0.00136838 0.00106931 17.8557 5.70542 6.0989 
6336 1 3 15.8895 11.9058 6.20992 -1 2 -2 0.00279847 -0.0199969 0.00944315 -20.3931 -17.9901 -12.9878 
1584 1 3 14.7015 16.2606 4.64547 -2 0 -2 -0.0333021 -0.00711804 -0.0148323 14.0381 -5.91975 17.741 
1576 1 3 14.9702 16.7197 6.35057 -2 0 -2 0.00969919 -0.0213445 0.000107196 -10.2883 5.60078 11.0906 
7456 1 3 16.719 15.2646 8.24651 1 1 -2 -0.0237059 0.0282905 0.00283533 -31.9016 1.94374 13.597 
457 1 3 11.374 15.6132 1.33473 2 0 -2 -0.0197301 0.0156403 -0.0120367 6.828 9.05585 2.38735 
2314 1 3 11.4113 9.83866 6.61591 -1 3 -2 -0.0143909 0.0214696 0.00339743 8.74594 7.22762 -34.7272 
2316 1 3 9.98924 10.4586 8.45403 -1 3 -2 -0.00829867 0.00574171 0.0042549 2.20582 -7.74174 2.12501 
2308 1 2 11.0471 10.183 8.58043 -1 3 -2 0.00278752 -0.00241197 -0.000785009 -24.4864 6.67039 9.46354 
8490 1 3 10.7611 15.8595 8.99565 -1 1 -1 -0.0167853 -0.0194958 -0.0269958 1.66827 -8.0559 -0.935548 
2309 1 1 11.7384 11.4441 8.4458 -1 3 -2 0.00155758 -0.00111701 -0.00269496 23.3392 -8.69058 12.5146 
7442 1 2 15.8537 15.1022 8.96212 1 1 -2 0.000546617 -0.00174849 -0.0103847 7.86012 1.82941 -11.8921 
464 1 3 13.2183 12.8872 1.73585 2 0 -2 -0.0110679 0.0140604 0.0242874 -15.6443 23.6904 -11.6301 
6492 1 3 5.02074 17.276 2.55776 0 2 -2 -0.00808645 -0.00706275 -0.00049701 0.637212 13.4514 11.709 
6486 1 2 2.22922 17.2671 3.01335 0 2 -2 -0.00188012 0.00124368 0.00299003 0.739177 -18.4372 1.4121 
6494 1 3 1.4518 17.1873 3.78536 0 2 -2 -0.00221268 0.0231423 0.0162826 -8.44969 1.41977 -13.6633 
5535 1 3 4.62526 17.1407 7.60597 0 2 -2 -0.0269948 -0.000739914 -0.00726837 2.71567 -3.4531 -6.46344 
8368 1 3 5.27416 21.1351 3.37546 -1 1 -2 -0.0100309 -0.00291602 0.00319096 -4.43279 17.1825 -4.27889 
8353 1 1 3.26483 21.7005 3.76875 -1 1 -2 0.00927251 -0.00372774 0.0127635 -50.5788 0.841514 14.9369 
2227 1 2 7.86759 19.4122 1.83627 0 2 -2 -0.00415159 -0.00310306 -0.000973113 -20.8093 4.46155 86.6757 
6493 1 3 2.70927 18.1929 3.07822 0 2 -2 0.00161486 0.00707463 -0.0194758 5.49881 34.125 0.664716 
2798 1 3 3.32825 23.6013 6.48926 2 2 -3 0.000826606 -0.0339523 0.0170109 17.3668 11.0698 -6.42438 
187 1 3 8.45013 21.4279 7.46568 0 0 0 0.0101966 0.0229608 0.00633 -40.5265 -18.3706 13.1267 
2228 1 2 7.91595 18.8202 3.31155 0 2 -2 -0.0117292 0.00895799 0.00285842 -19.9278 30.2889 -41.3814 
2797 1 3 4.42886 23.4543 5.14866 2 2 -3 0.0305095 -0.041041 -0.00861919 12.957 -12.7793 -21.8123 
2790 1 2 4.10672 24.1368 5.88038 2 2 -3 0.00151948 -0.00482945 0.0055611 -44.7253 23.2209 12.2788 
2799 1 3 4.92122 24.4789 6.50445 2 2 -3 0.0135386 0.0029167 -0.0147646 7.38811 -0.148564 3.87842 
2236 1 3 7.67013 17.7733 3.42472 0 2 -2 0.0150726 -0.0224654 -0.00821611 0.551169 -9.93557 -8.96921 
2239 1 3 5.97296 19.4041 5.9027 0 2 -2 -0.00697885 -0.0222689 0.00367282 -21.6375 -8.08946 2.12779 
2230 1 2 6.96392 19.2115 5.56665 0 2 -2 -0.00776039 -0.00130119 0.00225338 6.49586 2.57649 -36.0281 
2229 1 1 7.03221 19.6217 4.13692 0 2 -2 0.00543515 0.00300377 -0.00564107 3.08331 -4.5687 30.3833 
2237 1 3 7.53683 19.8539 6.23815 0 2 -2 0.00542245 -0.0382815 0.00332986 15.8086 -8.32757 -7.57174 
2238 1 3 7.22344 18.1375 5.58305 0 2 -2 0.00467201 0.00429321 -0.0169885 -2.3744 7.17393 15.0676 
2235 1 3 8.89906 19.0362 3.58805 0 2 -2 0.0238649 0.0365934 0.00968148 28.9888 -5.08974 20.8486 
186 1 3 8.44452 23.6679 7.95298 0 0 0 0.00768372 0.00095637 0.0246937 -5.45256 5.63865 8.05375 
265 1 3 5.93769 19.66 8.29967 1 2 -3 0.00751418 0.00254267 0.00971187 -22.5707 19.5551 19.7966 
191 1 3 8.46715 23.3222 5.39698 0 0 0 0.00373765 0.0282445 0.00232904 4.58506 -8.41313 10.9805 
267 1 3 3.81073 21.541 8.24685 1 2 -3 -0.0107618 -0.0100394 0.00807932 16.2325 -5.59895 4.23205 
262 1 2 1.89695 20.0909 8.6455 1 2 -3 0.00500168 -0.00182205 0.00186414 1.16092 -13.2763 89.9994 
2233 1 3 7.85243 20.4846 1.99169 0 2 -2 0.00102509 -0.0135789 -0.0139769 -0.0762971 8.26035 -8.48442 
8360 1 3 4.43101 19.938 4.27988 -1 1 -2 0.0109441 -0.00732703 0.00975389 -19.952 21.1161 -15.2485 
8354 1 2 4.27428 20.7175 3.47099 -1 1 -2 -0.00316374 0.00489093 0.00403826 16.1021 -50.1566 6.97992 
8359 1 3 4.04929 20.2031 2.51879 -1 1 -2 0.0187147 0.00388426 0.0112085 -2.84126 4.95322 7.45917 
8355 1 2 1.82036 21.2531 4.06375 -1 1 -2 0.00212548 -0.00442873 -0.00186716 42.8905 17.5168 -26.2011 
6667 1 3 8.31975 24.2341 2.70061 0 1 -2 -0.00886828 0.0195105 0.0149461 11.7173 9.67744 -0.16624 
182 1 2 8.87267 22.3161 5.19055 0 0 0 0.00365901 -4.27714e-05 -0.00307833 13.0256 24.6183 -0.832116 
2225 1 1 6.70071 19.0114 1.19888 0 2 -2 -0.00444963 -0.00405178 -0.00409468 -31.7446 0.390062 -32.7471 
271 1 3 1.79652 20.377 7.6887 1 2 -3 0.0185465 -0.00916955 0.00866382 -12.7209 19.5996 -56.1908 
261 1 1 3.26151 19.6813 8.85085 1 2 -3 -0.00306614 -0.00840346 -0.000162833 -14.3175 -20.1139 -0.196911 
266 1 3 6.14155 21.3186 8.9363 1 2 -3 0.0102216 0.0104048 -0.000700726 1.55847 -4.78473 5.28196 
260 1 2 4.0822 20.7995 9.02762 1 2 -3 0.0109621 -0.00259718 0.0023779 18.0591 23.1527 10.4653 
2234 1 3 8.68239 19.1628 1.27598 0 2 -2 0.0055031 0.00840665 0.0150227 39.7459 -16.7807 -22.3355 
270 1 3 1.25776 19.2395 8.91268 1 2 -3 -0.0142595 -0.00453708 0.0121164 0.886974 1.49381 -10.7925 
6660 1 2 7.6363 23.9795 1.90605 0 1 -2 -0.000657394 0.00340687 0.00237916 1.40797 -7.67407 20.8717 
189 1 3 8.14656 21.6072 5.29307 0 0 0 0.0140343 0.00900913 0.0162149 -44.0129 -21.6647 -7.00571 
6668 1 3 7.14117 23.0828 2.32851 0 1 -2 0.0157767 -0.00622374 -0.0106277 -1.83197 6.60616 -13.1527 
8361 1 3 1.76821 20.7283 5.0047 -1 1 -2 -0.010782 -0.014194 0.0153723 0.6936 -6.32284 7.73642 
5688 1 3 1.60602 24.4094 8.03455 0 1 -2 -0.0185191 -0.0155499 0.00817271 -14.4436 -8.31142 15.7087 
8364 1 3 1.31337 23.2318 3.42456 -1 1 -2 0.029588 0.00717761 0.00637625 0.663205 1.85935 -6.11511 
8362 1 3 1.48896 20.6023 3.23167 -1 1 -2 -0.00696929 -0.0144544 0.00432975 4.6166 1.69022 8.90493 
4599 1 3 13.4007 17.7317 2.72256 1 1 -3 0.0103041 0.0108557 -0.00384755 8.9537 -8.92183 -0.946508 
1785 1 3 12.1739 23.4814 7.23458 0 2 -1 -0.00286471 0.0070423 0.0105567 -1.35501 -16.3844 4.28319 
188 1 3 10.0816 21.1042 7.98718 0 0 0 0.000620938 -0.0366089 -0.0207093 5.55057 -3.77278 18.4165 
180 1 2 9.40874 21.7942 7.51901 0 0 0 0.00614817 -0.000724377 0.000515317 22.9657 27.7953 -27.0482 
179 1 2 9.42342 23.2278 8.10531 0 0 0 -0.0108933 0.00357731 -0.00228522 -18.2742 -46.8684 15.2577 
190 1 3 9.19844 22.3276 4.14706 0 0 0 0.0300189 -0.00735696 0.0276699 11.8989 -8.48019 3.83408 
181 1 1 9.84082 21.8305 6.15464 0 0 0 0.00414087 -0.00253627 0.0018785 20.9098 15.9058 -17.0155 
2495 1 3 11.8926 23.8463 1.95226 -1 -1 -2 -0.00244258 0.00109273 -0.0134386 1.33405 1.67684 -9.88489 
185 1 3 10.1347 23.8082 7.62492 0 0 0 -0.00749418 0.00273049 0.00280474 26.4707 20.7499 -16.3178 
4604 1 3 12.623 20.9734 2.03038 1 1 -3 0.0225349 0.0109622 0.0223361 -6.37199 1.77567 -13.2119 
4593 1 1 11.5664 18.5803 2.89875 1 1 -3 0.00309911 0.00826597 -0.00510929 -2.68845 29.2966 12.2494 
4608 1 3 12.7003 17.6694 4.38865 1 1 -3 0.00321609 0.00381193 -0.0125493 7.71494 11.274 8.78069 
8487 1 3 10.0102 18.531 6.52332 -1 1 -1 -0.00971328 -0.0280824 -0.0345242 -12.5469 0.639775 2.70344 
1779 1 2 12.9671 22.9049 7.74384 0 2 -1 0.00200498 -0.00380421 -0.00586303 11.0559 22.9741 -23.3735 
4598 1 2 14.8869 20.2455 2.16223 1 1 -3 -0.00648 0.0109134 -0.00761769 39.2363 40.4145 -19.9231 
1780 1 2 13.0973 21.4309 7.27484 0 2 -1 -0.00188476 0.00421933 -0.00182192 -6.35351 13.7654 -43.3664 
1781 1 1 13.8961 20.6989 8.18759 0 2 -1 0.0014313 -0.0111845 0.00667155 9.55623 -23.2817 25.4362 
4596 1 2 12.7615 20.8001 3.08027 1 1 -3 -0.00698917 -0.0022052 -0.00936404 -9.00373 1.07341 -20.24 
4597 1 1 14.0282 20.1786 3.25929 1 1 -3 -0.0024642 0.0065242 0.00653732 -5.87019 3.58431 34.264 
4595 1 2 11.6465 19.8883 3.59113 1 1 -3 0.00108297 -0.00189792 -0.00100629 -3.90348 -16.7551 -25.4466 
4602 1 3 10.6615 20.3255 3.46231 1 1 -3 -0.00436458 -0.00535221 0.015516 -0.0884283 11.9913 1.56398 
4601 1 3 11.8641 19.7797 4.61005 1 1 -3 0.00843277 -0.00916392 0.00699027 -4.28974 -12.2255 31.7585 
1778 1 2 15.3973 23.2883 8.2129 0 2 -1 -0.00303991 -0.00480408 -0.000318465 -19.68 14.0502 -44.8769 
1786 1 3 12.8596 22.9303 8.77927 0 2 -1 -0.0118636 0.0156368 -0.0184623 -18.55 2.98768 31.1266 
1788 1 3 12.1682 20.859 7.21123 0 2 -1 0.00149386 0.0246527 -0.0220553 -7.60843 13.1807 3.97206 
4603 1 3 12.7329 21.7602 3.57735 1 1 -3 0.00234025 -0.00224288 0.0271123 2.23347 5.54657 6.56557 
1787 1 3 13.4915 21.4554 6.21248 0 2 -1 -0.00264842 -9.36623e-05 -0.00689935 1.71811 -6.81154 29.2557 
4605 1 3 15.2781 21.2387 1.82851 1 1 -3 0.00668207 -0.00539108 0.0105917 -24.6457 -6.94435 12.5283 
1792 1 3 15.7033 22.3111 7.82713 0 2 -1 -0.00149189 -0.00826541 -0.00370347 -1.79963 -3.20978 10.5932 
4594 1 2 12.5127 17.6088 3.32978 1 1 -3 1.25853e-05 0.000215618 0.00574629 -20.736 -11.8859 0.603284 
2401 1 1 16.4311 24.7399 2.0136 0 1 -1 -0.00112991 0.00321693 0.00284904 7.95194 -14.4556 5.62077 
2486 1 2 12.3592 24.8374 1.88168 -1 -1 -2 0.000929698 0.00410265 0.00685383 42.1519 -5.40501 0.10089 
1452 1 3 16.2675 19.614 6.45888 0 1 0 -0.00655221 -0.00897239 0.00153568 2.01098 0.242436 22.3784 
7775 1 3 15.6875 23.357 5.26887 -2 2 -2 0.0346031 -0.00431591 -0.010284 -0.237802 8.00682 2.32922 
1443 1 2 16.9614 18.7157 8.41642 0 1 0 -0.000757364 0.00205509 0.000577905 -34.4691 -8.62059 -16.4069 
1777 1 1 14.1557 23.7219 7.51222 0 2 -1 -0.00199496 0.000128331 0.00282624 25.4793 -22.7405 1.31216 
2494 1 3 13.4468 24.8079 2.12089 -1 -1 -2 -0.0125796 0.0101511 0.00395588 -11.8516 -13.7168 -12.129 
8482 1 2 10.3829 18.0824 7.44451 -1 1 -1 0.00226334 -0.00222558 -0.00565743 15.5244 -3.83845 -25.7816 
8488 1 3 11.1807 17.4052 7.10292 -1 1 -1 0.00454552 0.0206272 0.0190905 0.0652074 5.91512 11.5709 
8481 1 1 9.40423 17.3404 8.14418 -1 1 -1 -0.00478647 0.0086325 0.00281489 2.04375 -40.1269 29.7299 
8496 1 3 10.7179 18.8711 8.08425 -1 1 -1 0.0184024 -0.0253853 0.00558309 13.1602 8.78926 9.33655 
4606 1 3 14.5771 19.6682 1.37728 1 1 -3 -0.0234218 0.0205078 0.00556909 -28.4776 -19.1241 -36.5021 
4607 1 3 15.753 19.7621 2.40475 1 1 -3 0.00735264 0.00064528 0.00971325 38.0048 -22.8843 22.5269 
1951 1 3 10.0002 24.3694 4.31197 0 2 -2 0.00111757 0.00576256 -0.0164281 30.8238 33.1509 15.9671 
1949 1 3 11.5173 24.9059 5.34762 0 2 -2 -0.0108716 -0.000899692 0.00421073 -1.76544 -14.1765 -4.83704 
7766 1 2 16.3505 22.5692 4.93308 -2 2 -2 0.00710945 -0.00395834 0.00210676 -5.85109 30.1429 -9.8273 
1449 1 3 15.9073 18.7707 8.70324 0 1 0 -0.0223138 0.0237547 -0.0197629 0.294193 4.55429 -1.52141 
7773 1 3 15.8598 21.6834 5.24757 -2 2 -2 -0.0206733 -0.0339234 0.00143526 -3.41843 -24.4947 -0.449047 
1784 1 3 16.2145 23.9656 8.01247 0 2 -1 0.00882429 0.00406662 -0.00568793 2.63127 9.14912 -6.9596 
7774 1 3 16.4152 22.7019 3.83521 -2 2 -2 0.00947339 0.00869119 -0.0112556 5.89053 -11.6941 9.33753 
8800 1 3 3.51369 6.53277 10.6069 1 2 -2 0.0267159 0.0012034 -0.00458479 -31.7862 -1.97452 -9.16015 
8791 1 3 5.14751 6.26257 9.94972 1 2 -2 -0.00693887 -0.0125735 -0.0133163 -15.6719 14.4319 6.9738 
8786 1 2 4.49792 6.892 10.6176 1 2 -2 -0.00465572 -0.00118532 -0.00510631 56.3523 -41.7113 24.3675 
8792 1 3 4.60749 7.92107 10.3682 1 2 -2 0.0248723 -0.00285108 -0.0001156 -5.37675 18.3833 -4.63791 
7272 1 3 8.44387 7.63687 9.65239 -1 1 -2 0.00694364 0.00435255 -0.0209858 8.56288 15.1692 3.15297 
7632 1 3 6.35171 1.48511 14.2031 0 2 -2 -0.0150643 -0.00358868 -0.0157183 -3.45624 2.23323 -8.32613 
4651 1 3 4.12207 1.49538 9.68887 -1 1 -2 0.00506749 0.00889088 0.00812164 -1.99226 -17.6659 -5.09419 
7618 1 2 7.32809 1.43887 14.6707 0 2 -2 -0.00480013 0.00127323 0.00511156 -20.8897 -5.40283 43.438 
4645 1 1 4.03517 3.42897 9.90425 -1 1 -2 0.00118914 -0.00147576 -0.00515304 -15.3926 27.3657 2.31492 
4644 1 2 4.21419 2.16503 10.5199 -1 1 -2 0.00788279 0.00349122 -0.000798548 26.1617 -1.26172 -39.3134 
7624 1 3 7.93296 2.26338 14.4399 0 2 -2 0.00243931 0.00869376 0.011751 14.1743 22.3353 -15.2072 