ITEM: TIMESTEP
15000000
ITEM: NUMBER OF ATOMS
10479
ITEM: BOX BOUNDS pp pp pp
1.08224 48.8568
1.14437 48.8836
1.12017 48.8918
ITEM: ATOMS id mol type x y z ix iy iz vx vy vz fx fy fz 
7081 1 3 3.30038 4.00683 2.32169 0 1 -1 0.00681675 0.0170747 0.00258073 5.79778 8.8986 -5.24009 
9887 2 6 7.42929 6.57592 3.07581 0 1 -1 -7.46697e-05 -0.00335942 -0.00215895 -4.50344 -6.94637 2.25599 
9885 2 5 8.48137 7.55002 2.84172 0 1 -1 -0.0034396 -0.00462962 0.000222144 28.9742 10.1813 -17.2243 
7083 1 3 3.6839 4.01681 4.55645 0 1 -1 0.00482468 0.0124933 -0.00642734 20.9466 -22.8342 -2.71724 
10367 2 6 3.38109 6.67167 5.68764 0 1 -1 -0.000674047 -0.00459807 0.00637708 -17.2392 -37.5603 47.3621 
10365 2 5 2.58374 5.84445 6.6893 0 1 -1 0.00133225 0.00530736 -0.0011107 3.45239 64.2107 -44.4722 
7075 1 2 4.19941 3.43176 2.54739 0 1 -1 -0.00448515 -0.00287616 0.00929688 15.1259 -5.75321 38.0646 
7076 1 2 4.51464 3.41553 4.07207 0 1 -1 -0.000625772 -0.00170879 -0.00393737 -29.6711 33.0529 -18.7997 
7082 1 3 5.11999 3.71795 2.04854 0 1 -1 -0.00670752 0.0258942 -0.0228449 -0.650252 21.4629 -3.23623 
10361 2 2 5.98276 5.25161 7.81209 0 1 -1 0.00124169 -0.00350686 -0.00227012 -0.56025 23.1659 13.7949 
10362 2 7 5.90908 5.37993 6.50579 0 1 -1 0.00063865 0.00362674 0.00146714 -7.69652 3.14446 -22.4615 
7084 1 3 5.43552 4.00985 4.14283 0 1 -1 0.00899339 0.000563243 0.011724 3.92855 -11.4418 12.9373 
10357 2 4 3.19699 5.45921 8.21127 0 1 -1 -0.000104509 -0.000763097 0.00395751 34.309 17.5758 26.9433 
10363 2 7 6.07583 3.94651 8.04009 0 1 -1 -0.000966747 9.07683e-05 0.00300428 4.54255 -10.2463 9.54933 
7073 1 1 4.01506 2.10645 2.14104 0 1 -1 -0.00105008 0.00374463 0.00299103 -30.9505 -21.8344 -22.0385 
7077 1 1 4.61353 2.0244 4.5568 0 1 -1 0.00525089 0.000727824 -0.00668269 5.65016 13.2788 9.02381 
10366 2 6 2.15983 4.50963 6.37853 0 1 -1 -0.00318944 -0.00273576 -0.00451369 4.01377 -35.3264 -19.9937 
9796 2 6 1.94778 1.82004 4.02428 0 1 -1 0.0041613 0.00178323 0.000747654 19.9053 6.7055 0.44132 
10359 2 6 4.62801 7.41128 8.49212 0 1 -1 0.000953771 -0.00440714 -0.00604824 6.55725 13.089 -11.9365 
7768 1 3 8.01309 8.75452 8.31736 -2 2 -2 -0.0222208 0.0196156 0.00589637 -4.02918 3.50083 0.905421 
7078 1 2 5.06766 1.95041 5.94939 0 1 -1 -0.000175443 -0.00645175 -0.000373718 -40.3301 -24.4333 -25.9764 
7776 1 3 6.92291 7.93942 7.20305 -2 2 -2 0.0108034 0.00190343 0.0234226 4.69856 -4.80231 -8.01697 
7762 1 2 7.42877 8.87446 7.40746 -2 2 -2 -0.00203407 0.00302176 -0.000322635 -30.8317 1.90934 34.1067 
4974 1 3 8.52055 5.83703 5.2274 0 1 -1 -0.00377559 -0.00636238 0.00415484 -7.51359 13.5136 4.20436 
7086 1 3 4.20109 2.14749 6.59527 0 1 -1 0.0184715 0.00748399 -0.0119584 6.42916 2.44063 2.9868 
3201 1 1 7.89883 2.86463 1.95451 1 1 0 0.00591815 -0.00356046 0.00243476 -29.5742 -17.7887 37.0498 
10358 2 5 4.57373 6.00595 8.69339 0 1 -1 -0.00199883 -0.00398003 0.0028437 -11.5059 -37.9882 41.0885 
2822 1 2 2.32979 2.43359 8.90775 0 2 -2 -0.000311549 0.00476821 -0.0055769 1.6193 17.6708 32.1881 
7087 1 3 5.82832 2.62534 6.07528 0 1 -1 -0.00628708 0.0290846 -0.0189189 31.2186 31.2823 9.13844 
10364 2 7 7.15204 5.84438 8.14369 0 1 -1 0.00192542 -0.000828053 0.00248533 -1.51728 -11.945 8.00335 
10371 2 7 1.13338 7.88462 7.54732 0 1 -1 -0.000679175 -0.00376606 -0.00283111 14.9041 22.3878 8.6143 
3847 1 3 4.45775 6.44625 1.26371 1 2 0 -0.00366402 0.00799902 -0.00100801 10.6653 3.36222 -8.5945 
2829 1 3 3.0177 3.36021 8.97849 0 2 -2 -0.0025656 -0.00191616 -0.00390531 -23.9215 -49.7623 -3.04236 
2821 1 1 3.07253 1.1947 8.79576 0 2 -2 0.00304223 -0.00658086 -0.000564022 16.6972 15.8876 -0.166796 
4973 1 3 8.70116 4.19535 4.77593 0 1 -1 0.00276561 -0.0185678 -0.0227349 -10.1602 -14.0237 -3.36374 
5594 1 3 8.67941 1.33862 7.11282 0 0 -1 -0.0159036 -0.00149804 -0.00714565 -0.713654 -10.4127 7.92105 
2831 1 3 1.6247 2.51919 8.08914 0 2 -2 -0.0117805 0.0152436 0.000229834 0.560542 0.743011 -7.4012 
4975 1 3 9.14618 4.68449 6.45263 0 1 -1 0.00981556 -0.00632459 0.0181595 -6.50688 3.45073 -12.8713 
4966 1 2 9.12205 4.96532 5.37745 0 1 -1 -0.00916076 -0.00476129 0.00214902 -22.6876 -6.72801 26.9157 
9886 2 6 9.60798 7.54273 3.83085 0 1 -1 -0.00180824 0.00677113 0.00117798 -13.3026 3.29747 -4.74822 
9879 2 6 11.3119 6.23953 2.6192 0 1 -1 -0.00590496 0.00491459 -0.00690368 -25.0098 -1.62368 -62.5919 
9767 2 6 12.1054 8.5002 3.92616 0 1 -1 -0.00580094 -0.000572737 -0.00227323 1.22072 3.38452 11.878 
10464 3 8 11.2442 6.84027 4.30918 0 1 -1 0.00214693 0.00100321 0.00279278 4.38151 2.70591 2.97852 
4965 1 1 10.4185 5.19557 4.94405 0 1 -1 0.000862676 0.00372536 0.00110984 32.2404 16.4947 -20.1191 
4961 1 1 12.856 5.75548 4.74035 0 1 -1 -0.000653682 -0.00364026 0.00637401 -26.9346 -21.5961 1.94991 
4962 1 2 14.2029 6.03845 4.63981 0 1 -1 0.00291338 0.00324552 0.000675276 19.2158 38.9384 4.00748 
4963 1 2 12.6715 4.48213 5.3995 0 1 -1 -0.00274104 -0.00448182 -0.00106397 -11.6659 -26.139 -11.2012 
4967 1 3 14.1743 6.92086 4.00309 0 1 -1 0.0131101 -0.029223 0.0223093 19.4288 -1.71509 -5.99862 
4976 1 3 14.6138 6.31059 5.60514 0 1 -1 -0.0266572 0.00534803 0.00591057 0.529155 0.521396 5.28568 
4964 1 2 11.2545 4.0323 5.08813 0 1 -1 0.00482904 0.000664342 0.00265589 7.7379 -12.2007 -47.1522 
4970 1 3 13.3416 3.68865 4.93743 0 1 -1 -0.00233712 -0.0117505 -0.0108462 -12.1924 26.9108 19.8951 
4968 1 3 14.8064 5.23914 4.27438 0 1 -1 -0.0152832 0.0240808 -0.00472707 3.62717 -14.6466 -18.1804 
9759 2 6 11.3199 7.40152 6.02938 0 1 -1 -0.00340853 0.00292798 0.00485685 4.45792 16.0734 32.5099 
4972 1 3 11.3367 3.40955 4.13004 0 1 -1 0.00507335 0.00510027 -0.0201742 -13.5692 19.8874 27.595 
4971 1 3 10.8105 3.47295 5.87624 0 1 -1 -0.0316049 0.00235838 0.0261281 6.87707 -22.2335 15.143 
4969 1 3 12.6696 4.54923 6.48982 0 1 -1 0.00063125 0.0254724 -0.0106218 18.9055 3.61133 1.13954 
9758 2 5 12.0193 8.33746 6.92639 0 1 -1 0.00257831 0.00427943 0.00045886 13.0183 -11.3756 -11.115 
9760 2 6 13.4094 7.87685 6.84129 0 1 -1 0.00166432 -0.00681202 -0.00903942 -40.9805 16.3901 4.55023 
10037 2 6 13.5775 2.81316 2.29378 0 1 -1 0.00107112 0.00159803 -0.00213127 -4.1046 13.6801 1.1467 
10027 2 4 15.4811 2.42538 3.89044 0 1 -1 0.00298894 0.00260658 -0.00439478 -4.27908 28.8545 -53.6322 
9761 2 2 11.4671 8.18522 8.7023 0 1 -1 0.00978354 -0.000970177 -0.00364202 -12.9084 35.2559 -2.96685 
10035 2 5 14.5885 1.80077 2.56713 0 1 -1 -0.00288745 0.00206957 0.00601322 -10.3198 -25.006 -10.7137 
3210 1 3 9.72704 3.6464 2.49387 1 1 0 -0.0119794 0.0108687 -0.00483843 0.0281201 6.10701 -8.86586 
3203 1 2 9.13971 2.74172 2.60464 1 1 0 0.00273853 -0.0166038 -0.00207991 27.7464 3.43115 -28.3126 
10033 2 7 15.506 3.78831 6.74801 0 1 -1 0.00141666 0.0004357 0.00601323 10.2473 -32.7924 -19.8134 
5597 1 3 10.6079 4.91581 8.14359 0 0 -1 -0.0254855 0.000627571 -0.0184535 16.5866 16.5239 -0.709273 
5589 1 1 9.93119 3.0861 8.2086 0 0 -1 -0.00186352 -0.00115778 -0.00270106 -1.95063 20.513 -6.80793 
10031 2 2 16.139 2.59339 6.38951 0 1 -1 0.00409393 -0.00255505 -0.00192896 55.4349 32.2752 55.3289 
9764 2 7 10.1048 8.06804 8.85385 0 1 -1 -0.00101771 -0.000907371 0.000858541 31.9712 5.58362 -16.7917 
10036 2 6 15.7342 1.61767 1.68649 0 1 -1 -0.000520085 0.00286467 -0.00359237 8.81384 -3.8412 -12.891 
5590 1 2 10.3754 4.23312 8.93519 0 0 -1 -0.00344384 -0.00661402 -0.00415916 16.4247 -6.52519 22.0285 
10028 2 5 15.3857 1.66694 5.12631 0 1 -1 0.000211449 0.00103405 -0.00034127 -27.3369 -68.8192 52.939 
5592 1 3 11.5358 1.64953 7.07973 0 0 -1 0.0208449 -0.0228071 -0.0147161 -1.14327 6.56348 4.80479 
5588 1 2 9.46985 2.03819 9.00624 0 0 -1 -0.0076004 -0.00482434 -0.00352052 -22.9914 -39.1201 -5.49847 
3204 1 2 9.86587 1.57646 1.95415 1 1 0 0.00314249 0.00426523 -0.00264285 25.3382 -39.3057 -30.2999 
10032 2 7 16.3241 1.8929 7.57261 0 1 -1 0.00158292 0.00206519 0.00600932 -8.57384 8.38855 -29.8088 
9877 2 4 9.19565 6.9287 1.32009 0 1 -1 -0.00311364 -0.00119695 0.00111777 24.7142 -0.0971076 20.6364 
9878 2 5 10.6746 6.37822 1.26264 0 1 -1 0.00154489 -0.000460611 0.00182385 19.5345 -17.2029 43.6242 
3869 1 3 16.0814 6.47758 7.93974 -1 0 -1 -0.00524195 -0.0103473 0.00895631 -5.69246 18.089 7.4201 
3862 1 2 16.885 6.10826 8.56796 -1 0 -1 0.00117671 -0.00407689 -0.0035832 -10.5184 -27.6245 -20.7296 
3549 1 3 15.127 8.65319 8.7103 -1 0 -1 0.0106387 9.88977e-05 -0.0171334 -1.02422 23.2797 -13.4808 
3211 1 3 10.9107 1.60854 2.35305 1 1 0 -0.0206586 0.00762779 0.0101721 -14.405 -0.997037 -14.33 
3209 1 3 9.0999 2.60892 3.63852 1 1 0 -0.0348198 0.00426015 -0.010086 -17.0734 -15.9397 28.5371 
3870 1 3 16.6666 5.03339 8.58436 -1 0 -1 -0.00209288 0.0146099 0.00440062 11.3445 1.77886 8.36496 
10029 2 6 14.0102 1.57584 5.54256 0 1 -1 -0.00428793 0.00418325 -0.00326748 7.54539 -6.53693 -1.26671 
3550 1 3 16.6091 9.00242 7.84713 -1 0 -1 -0.00819826 -0.00183751 -0.00545068 -0.178959 8.83218 4.25666 
7767 1 3 6.59691 9.58259 7.59581 -2 2 -2 0.0170639 0.0119176 -0.0116033 14.986 3.95613 -8.85034 
9888 2 2 7.91684 9.25449 2.52763 0 1 -1 -0.00667485 -0.000305035 -0.000692313 12.9747 -19.8037 -13.2021 
9809 2 7 4.74574 9.34475 5.73506 0 1 -1 -0.00325642 0.00563516 0.00135886 -4.55476 4.83266 -8.11937 
7761 1 1 8.30101 9.21474 6.3569 -2 2 -2 -0.00629574 -0.00217082 0.00412756 23.7039 8.63312 -24.1945 
9802 2 4 2.79531 9.76262 3.15999 0 1 -1 -0.00708786 0.000856237 -0.000682221 -0.467673 4.74001 -25.9889 
9808 2 7 5.16914 11.3882 4.98528 0 1 -1 -0.00110539 -0.0015715 0.00394162 -5.73631 -14.4342 -9.11593 
9807 2 7 3.96929 11.1094 6.61269 0 1 -1 0.00482347 -0.00133797 0.00585846 -16.5382 13.1316 42.7012 
9806 2 2 4.21042 10.5613 5.47654 0 1 -1 0.00668707 -0.00222721 -0.000304216 31.8077 -0.784882 -19.0126 
9803 2 5 2.75061 10.536 4.45766 0 1 -1 0.00266258 0.00218226 0.00157743 -19.1578 36.2474 2.59367 
4385 1 1 5.29626 14.3823 5.86107 0 0 -1 -0.0040997 0.00502351 -0.00149299 29.8774 -10.5823 -9.68107 
4387 1 2 5.522 14.2154 7.29975 0 0 -1 -0.00144743 -0.000628741 0.00528402 -70.5472 -29.9408 -42.1626 
4394 1 3 5.5561 13.1273 7.43217 0 0 -1 0.0124762 0.00611107 -0.00381716 18.8904 3.97486 9.94205 
4393 1 3 6.28117 14.7605 7.71112 0 0 -1 -0.000302872 0.01289 0.0231834 43.5354 22.277 10.5681 
9804 2 6 2.22329 11.8971 4.21034 0 1 -1 0.00105726 0.000890827 0.00382474 27.7341 -27.3362 20.4245 
9970 2 6 1.76439 13.4996 2.12134 0 1 -1 0.00184142 -0.00524269 -7.00561e-06 -6.65183 -32.0683 28.5298 
4388 1 2 4.19759 14.6378 7.93362 0 0 -1 0.000462648 0.00266025 0.000644547 15.0987 58.9217 17.069 
7763 1 2 8.50889 10.6272 6.0292 -2 2 -2 0.00408419 0.00509471 -0.00163037 -44.7861 -33.4835 8.4625 
4396 1 3 3.46146 13.9854 7.58526 0 0 -1 0.025476 -0.00804409 0.0111075 -29.7462 -17.7171 -3.32299 
4389 1 1 3.84532 16.0623 7.67444 0 0 -1 -0.00579072 -0.00585667 0.00649275 15.3367 -18.955 1.2991 
4395 1 3 4.31263 14.6565 9.00596 0 0 -1 0.0256272 0.00476277 -0.000935651 -2.03387 -18.7508 10.6018 
9810 2 5 1.54872 10.0643 1.97212 0 1 -1 -0.00118767 0.000304915 0.00436624 15.9242 -7.46915 0.108888 
9805 2 6 1.65373 9.99659 5.1944 0 1 -1 0.00416083 -0.000851476 0.000924507 -3.29618 0.0704529 2.0258 
4424 1 3 1.8379 15.9485 4.60571 0 1 -1 0.00225388 0.00487654 0.00922703 1.41554 -8.36716 7.97482 
4432 1 3 2.81833 14.4945 4.40469 0 1 -1 -0.030723 0.0200614 0.00204999 21.6901 -3.33858 -7.62673 
4392 1 3 7.14832 13.3266 5.23878 0 0 -1 0.0102118 0.00138488 0.0033058 -24.2076 14.9428 -0.571656 
4400 1 3 7.07578 15.1182 5.33715 0 0 -1 0.0201241 -0.0199209 0.0194822 -3.52976 -19.1137 -16.7848 
4386 1 2 6.50301 14.2279 5.01002 0 0 -1 0.0017994 -0.00624773 -0.000607126 -3.36814 2.90394 28.1463 
4391 1 3 6.2119 14.2335 3.93521 0 0 -1 -0.00407636 0.00823387 -0.0100501 4.59057 5.59975 15.3087 
4418 1 2 2.03404 14.922 4.97787 0 1 -1 -0.00432501 0.00136665 0.00562658 -22.0935 2.86875 -5.75528 
7769 1 3 7.49437 10.9997 5.92586 -2 2 -2 -0.0120747 0.0140905 0.0180647 -0.696461 10.3748 0.238914 
7765 1 1 8.47734 12.5314 7.59074 -2 2 -2 0.000879094 -0.00501989 0.0024057 -28.6869 -16.9163 -16.579 
7773 1 3 8.35021 14.0463 8.97705 -2 2 -2 0.0211616 0.010726 0.0136903 -0.145748 -4.08832 -1.58296 
9891 2 7 7.14232 9.66294 3.541 0 1 -1 -0.0019138 0.00467366 -0.000762405 -10.2964 3.52717 -6.73064 
9646 2 6 8.05327 17.033 4.93334 0 1 -1 0.0040014 -0.00523612 0.00958322 -1.84566 18.3988 0.416974 
4397 1 3 1.83694 16.0519 7.70209 0 0 -1 0.0102347 0.0200363 -0.0132439 -17.0895 -3.44976 17.9664 
4390 1 2 2.61349 16.5662 8.25476 0 0 -1 0.0096566 0.00178156 -3.45446e-06 30.9597 -2.26741 -35.0302 
7770 1 3 8.93009 10.6253 5.04059 -2 2 -2 0.0282498 -0.0179633 0.00101189 20.2087 13.875 -2.72502 
9889 2 7 8.99234 10.089 2.4928 0 1 -1 -0.003709 0.00276553 0.00115669 -13.0452 -4.86497 -9.65055 
5133 1 3 1.94446 12.1783 8.37589 1 1 -2 -0.0066875 -0.0101454 0.0146809 0.0431351 8.85632 6.89601 
232 1 3 4.27748 16.211 3.69517 1 1 -1 0.0166436 0.0160856 -0.00753525 -13.3832 -10.6092 -6.97987 
231 1 3 5.93902 16.839 3.89277 1 1 -1 -0.0228978 -0.0048501 0.00286814 -28.6702 -4.09703 13.7007 
226 1 2 4.84016 17.0486 4.03915 1 1 -1 -0.00567694 -0.000285292 -0.00457819 35.4242 41.0987 -38.4115 
9890 2 7 7.23717 9.28726 1.3267 0 1 -1 -0.00647613 9.1335e-05 -0.0033862 7.38528 13.338 28.1435 
8416 1 3 7.75839 14.8294 1.98475 0 1 0 0.0108401 0.00301607 0.0122944 -15.1392 -11.687 -23.0658 
4423 1 3 2.27901 14.8927 6.04861 0 1 -1 0.0099703 -0.00618747 -0.00756637 2.80508 2.44946 -9.06661 
8407 1 3 6.97523 13.2325 2.18803 0 1 0 0.00716225 0.00359493 0.00532308 8.36084 -2.08675 -13.5904 
8402 1 2 7.20237 14.0125 1.43562 0 1 0 0.00908201 0.00379217 -0.000423336 -7.16898 5.75996 30.988 
9969 2 6 1.13259 15.5137 1.89834 0 1 -1 0.000733344 0.00676551 -0.00121723 -12.2155 26.5799 11.0135 
6375 1 3 15.8406 13.1489 1.63512 0 1 -2 -0.0171305 -0.00212057 -0.0277251 13.5041 -8.88972 -10.4078 
7766 1 2 9.1004 13.4112 8.49243 -2 2 -2 -0.0027019 0.00138604 0.000972108 47.1761 29.1118 25.6356 
8409 1 3 9.28919 12.6602 1.51342 0 1 0 0.0103324 0.0138702 -0.0126718 8.72512 2.48564 -10.8296 
7772 1 3 9.45221 10.737 7.96677 -2 2 -2 -0.00573127 -0.0140345 0.0114025 -1.00346 -11.3217 16.617 
7771 1 3 10.1489 11.7607 6.78255 -2 2 -2 -0.00457242 -0.0110107 -0.0256328 14.3573 2.13491 -9.49888 
7764 1 2 9.22108 11.3785 7.14971 -2 2 -2 0.00163219 -0.00352007 -0.00779136 18.1006 19.5608 -7.59913 
9650 2 7 9.26136 14.3735 4.04351 0 1 -1 -0.00868494 0.000912613 -0.0039614 -4.96653 -6.51921 -0.7798 
9770 2 7 14.7995 9.28365 4.45186 0 1 -1 -0.0013376 -0.00641012 -0.00261358 -0.829875 4.4684 -13.0985 
9757 2 4 11.967 9.73363 6.21177 0 1 -1 -0.0041069 -0.00283564 0.000652284 -4.18286 -30.6177 49.6201 
9765 2 5 12.2882 9.84643 4.56641 0 1 -1 -0.00337193 0.00396219 -0.0029046 -3.71143 -14.5472 -21.0414 
9771 2 7 14.0381 10.9557 3.16629 0 1 -1 0.00385264 0.00806715 -0.00140247 21.419 -0.546831 0.857139 
9768 2 2 13.9775 10.3553 4.37105 0 1 -1 0.00301891 -0.00141134 -0.00120004 -4.8238 -33.115 -29.8766 
9651 2 7 9.90805 15.9473 2.62303 0 1 -1 0.00884362 0.00428184 0.000340674 1.32132 -19.3785 23.7082 
9649 2 7 11.261 15.091 4.0737 0 1 -1 0.00210392 0.00470028 0.000170458 19.8031 -2.04061 7.08735 
9769 2 7 14.4184 11.1456 5.28981 0 1 -1 0.00675064 -0.0014535 0.00178784 2.9428 34.8952 26.0363 
9648 2 2 10.0087 15.4692 3.91969 0 1 -1 -0.000356481 0.00940383 -0.00182326 -12.2211 39.16 -35.3551 
9766 2 6 11.2986 10.8413 4.18468 0 1 -1 -0.0106348 -0.00036279 0.00431735 -3.90647 6.34955 -1.34541 
9874 2 7 15.0465 16.3119 7.45709 0 1 -1 -0.000476031 0.00541223 -0.0032383 -17.7718 -4.12281 3.78017 
8479 1 3 13.5907 13.3091 6.55629 1 1 -2 0.00415776 0.017862 -0.0172711 6.36899 6.74207 -12.6576 
8470 1 2 12.6644 13.851 6.72912 1 1 -2 0.00196818 -0.00146509 -0.000721934 17.6354 1.18637 -3.89278 
8477 1 3 12.7329 14.8979 6.36908 1 1 -2 -0.0061603 -0.00442862 0.00909489 -3.2767 -12.1648 -2.58998 
8478 1 3 11.8856 13.2606 6.23895 1 1 -2 0.0271989 -0.000990926 0.0104923 -8.40674 5.71578 6.73511 
9647 2 6 10.0317 16.5633 6.42131 0 1 -1 -0.00321798 0.00578665 0.00239838 -18.4889 12.6371 -9.51904 
3542 1 2 15.7372 9.50353 8.29643 -1 0 -1 0.000458909 -0.00040061 0.00504545 -3.49466 -9.73305 6.58637 
9433 1 3 13.0782 15.395 1.66058 1 1 -2 0.0157576 0.00962386 0.0181537 -7.51277 -18.2598 -12.0817 
7774 1 3 9.86605 14.0693 8.02416 -2 2 -2 -0.0164594 0.00335815 0.00169497 -17.1625 -8.4888 -8.71935 
3551 1 3 15.2504 10.1506 7.52381 -1 0 -1 -0.00383262 0.0256839 0.0113309 -0.180302 -16.3094 12.6343 
8469 1 1 12.5904 13.8896 8.15285 1 1 -2 0.00242675 0.00251804 0.00158023 -7.55264 17.5604 11.5531 
9645 2 5 9.48312 16.8081 5.04293 0 1 -1 0.00393223 -0.00240352 4.56833e-05 23.2403 -40.6622 30.5776 
9429 1 1 15.4385 15.555 2.77105 1 1 -2 0.00295957 -0.00304417 0.00319537 -14.8172 31.8679 -45.6866 
9438 1 3 14.1846 14.6197 4.21389 1 1 -2 0.0138086 0.0133679 0.0111201 0.896809 -1.1727 -10.6023 
9430 1 2 15.1054 15.1949 4.06431 1 1 -2 -0.0100537 -0.00306654 0.00389151 61.8428 -6.46225 59.9152 
9428 1 2 14.642 16.6707 2.16783 1 1 -2 -0.00533416 -0.00384897 -0.000392719 6.50327 -46.6125 -18.9045 
9439 1 3 15.0845 16.1364 4.63481 1 1 -2 0.000675007 0.0235141 -0.011337 -8.30885 -6.8024 1.50886 
3548 1 3 16.8852 12.0311 8.51698 -1 0 -1 0.00279419 -0.000601136 -0.00171551 13.8406 -9.18883 -10.1702 
8475 1 3 11.8518 12.136 8.60836 1 1 -2 0.0114671 -0.02995 0.0123339 -21.9252 -32.5707 -13.9538 
8476 1 3 13.6511 12.1832 8.37246 1 1 -2 -0.00871785 0.00404467 0.024909 -0.990147 -13.2014 5.22846 
8468 1 2 12.7485 12.6259 8.7936 1 1 -2 0.00102154 0.00898609 0.00205179 10.5338 33.7134 31.6369 
9437 1 3 16.0758 14.658 4.43721 1 1 -2 -0.00163073 -0.00093675 -0.015619 -53.2584 12.6305 -10.9922 
6370 1 2 16.913 12.8741 1.76053 0 1 -2 -0.0057415 0.00592399 -0.00120874 0.837257 8.24645 -1.85206 
6384 1 3 16.9986 11.9315 2.32931 0 1 -2 -0.0079616 -0.0108559 0.00213611 -7.7697 8.9526 -1.18893 
1424 1 3 1.87058 18.1844 5.16788 0 1 0 -0.0140758 -0.00298376 -0.015514 -6.21179 -12.8665 -25.0248 
238 1 3 4.87605 23.3686 2.59767 1 1 -1 -0.0231006 -0.0214404 0.0173784 16.0454 10.1157 1.83891 
4664 1 3 3.73715 23.6224 8.93574 1 2 -3 0.0117555 0.00434331 -0.0258115 -1.47546 4.39234 -4.29721 
3455 1 3 6.62219 17.2161 2.09128 1 1 -1 0.00599652 -0.00645946 0.023186 -6.94347 4.41624 36.229 
5966 1 3 5.67485 24.7131 6.31864 2 1 -2 -0.00127243 0.0184628 -0.0129469 2.65515 -18.0054 3.0796 
1416 1 3 2.16787 19.8482 4.85905 0 1 0 0.00910014 -0.012035 0.00515498 -19.1993 -4.24426 11.7417 
249 1 3 7.37255 17.2797 7.33044 0 1 -1 -0.0139637 -0.000450141 0.0251731 7.73488 -3.37486 -11.2398 
230 1 2 4.18563 22.641 2.25122 1 1 -1 -0.00314565 -0.000835491 0.000208647 -29.7464 27.617 -22.8448 
2811 1 3 3.02875 19.4647 7.15458 0 0 -1 0.00292497 -0.0143215 -0.0205986 -14.8943 7.26639 -3.34535 
229 1 1 4.29156 21.514 3.1641 1 1 -1 0.00271935 0.0100096 -0.00173601 -15.3844 -7.23716 -16.0781 
234 1 3 4.50794 19.7387 4.65308 1 1 -1 0.0155525 0.000191977 0.0234441 -1.90862 -11.5949 13.9678 
233 1 3 6.1646 18.9939 4.29461 1 1 -1 -0.016345 0.0069574 0.00363938 -21.3683 19.9049 -6.12728 
243 1 2 7.65344 18.0559 8.03014 0 1 -1 0.0038506 -0.00219054 0.00492051 -3.64567 -26.1293 26.4359 
227 1 2 5.17412 19.3674 3.88622 1 1 -1 0.00833726 0.00382275 0.00157647 39.6581 22.4786 1.32869 
241 1 1 8.6638 18.9267 7.58646 0 1 -1 -0.00545045 0.00152812 0.00528227 39.3905 -3.84132 -14.788 
256 1 3 7.55528 19.7107 5.9538 0 1 -1 0.0105471 0.0262547 0.0140835 -6.77509 -5.89007 -8.24717 
225 1 1 4.60584 18.2793 3.21313 1 1 -1 -0.00481955 -0.00170587 -0.00106712 -13.601 -47.6712 16.0001 
358 1 2 8.67335 22.693 4.11062 0 1 -1 -0.000185671 0.00335055 -0.00181105 -23.7162 1.49047 -1.90795 
3451 1 3 8.15559 18.6451 2.84023 1 1 -1 0.00922499 0.0214284 -0.0203312 2.2078 -9.39438 12.4562 
240 1 3 4.63326 17.2958 5.06289 1 1 -1 -0.0008805 -0.00681022 0.0317616 -4.74776 -5.48014 15.392 
365 1 3 7.85359 22.8476 4.89351 0 1 -1 0.00765812 0.0135627 -0.0215302 22.6293 0.0448677 -25.8277 
3444 1 2 8.59456 18.8141 1.87353 1 1 -1 0.00274549 -0.000187402 -0.00749515 34.8091 22.1422 27.0266 
228 1 2 5.37555 20.5831 2.95125 1 1 -1 0.00134858 -0.00338918 -0.00261707 16.0557 18.2511 34.742 
248 1 3 7.75987 20.7212 7.47836 0 1 -1 0.00733204 -0.0210711 0.0327471 -3.49364 -11.0627 -23.1241 
2804 1 2 3.69537 20.0576 7.76232 0 0 -1 -0.00596572 0.00487602 -0.00611768 15.9954 -16.0387 43.1289 
2805 1 1 3.56861 21.4833 7.577 0 0 -1 -0.00630516 -0.00132845 0.00661797 -0.52203 1.65771 -22.4242 
235 1 3 5.48838 20.3319 1.94637 1 1 -1 0.0072475 0.00803172 0.0127672 -3.70867 -14.2888 -33.1904 
236 1 3 6.29231 21.1148 3.24655 1 1 -1 -0.00617172 -0.0217762 -0.0305679 -3.21577 -4.50326 -0.361434 
357 1 1 8.32792 23.2327 2.79557 0 1 -1 -0.00391142 0.00299071 -0.000545672 8.35144 -23.6719 -5.31994 
250 1 3 6.76301 18.578 8.24024 0 1 -1 -0.0168152 -0.00903892 0.00690551 -20.387 19.0813 5.57804 
242 1 2 8.22604 20.0118 6.73914 0 1 -1 0.00588263 -0.00153734 -0.00100778 -2.06947 26.4614 52.1025 
2812 1 3 4.67216 19.6894 7.44711 0 0 -1 0.0189948 -0.0237201 0.0162937 7.88258 8.97777 6.74334 
239 1 3 3.1878 23.1828 2.33579 1 1 -1 -0.00743099 0.00422355 0.018788 21.6842 -24.5839 2.9376 
367 1 3 8.7894 21.5926 3.92267 0 1 -1 0.0225906 0.0281343 0.00401682 2.92636 24.5906 18.5384 
2814 1 3 3.61069 21.7762 5.47351 0 0 -1 -0.00296917 -0.0104583 -0.0404643 -21.0025 -4.93699 -6.52109 
4398 1 3 2.60752 17.5893 7.94985 0 0 -1 0.0221475 0.00176913 -0.00103317 -7.19251 7.30475 -7.88666 
2806 1 2 4.17901 21.9905 6.3483 0 0 -1 -0.00141356 -0.000888416 0.00149837 -13.3024 -17.9907 20.9135 
2815 1 3 5.10405 21.4585 6.19627 0 0 -1 0.00343004 -0.00169369 -0.0314674 18.3184 10.2314 2.77328 
2813 1 3 4.22864 23.0549 6.45849 0 0 -1 -0.000676958 -0.0189787 0.00290063 12.6066 12.6358 -2.81431 
3424 1 3 2.25714 18.8244 1.83538 0 0 0 0.00139879 -0.0226235 -0.0050291 -12.2284 4.96984 27.5419 
237 1 3 4.36738 22.4673 1.14636 1 1 -1 0.0374085 0.00346825 0.00333582 -0.0813543 -13.8409 30.8188 
3449 1 3 8.40754 20.8855 1.88306 1 1 -1 -0.00990848 0.004027 0.0185806 0.318995 15.8028 -1.32919 
363 1 3 6.61741 24.2685 3.0716 0 1 -1 -0.00881305 0.00191104 0.008487 -9.76543 8.27706 11.033 
4672 1 3 1.90194 23.8873 8.95467 1 2 -3 -0.0129169 0.00621479 0.00121493 33.9147 7.36022 9.54029 
1410 1 2 1.33628 19.1221 5.05544 0 1 0 0.00127998 0.000847725 -0.00134235 57.277 2.65346 27.2371 
356 1 2 7.60036 24.4415 2.68051 0 1 -1 -0.000737185 -0.000218222 -7.84655e-05 10.5413 35.2091 -25.4353 
355 1 2 7.51202 24.9695 1.21158 0 1 -1 -0.0115087 -0.000467729 -0.00578031 -10.4741 13.982 1.95899 
711 1 3 1.38698 23.779 6.37701 1 0 -1 -0.00960445 0.00883656 0.0234814 -11.9491 -6.79075 6.20858 
3920 1 3 15.0275 23.9843 4.50791 2 1 -2 -0.0185567 0.00381265 -0.000984455 -1.55435 24.9069 17.9302 
3913 1 3 12.6843 24.3119 4.21564 2 1 -2 -0.0177461 0.0200424 -0.014478 -9.36447 2.70893 -6.90487 
3905 1 1 14.0201 24.0013 2.68503 2 1 -2 -0.00449862 0.000653713 0.0062159 -32.2709 18.8299 -16.036 
247 1 3 9.09147 20.5473 6.37814 0 1 -1 0.0171517 -0.0090003 0.0021021 6.84097 -0.0737673 -11.6813 
366 1 3 9.61572 23.1969 4.38547 0 1 -1 0.00959783 0.0117897 7.91529e-05 -5.66456 -8.36641 7.19823 
3443 1 2 9.23892 20.2021 1.93326 1 1 -1 -0.00129514 0.00149101 0.0112175 -15.6777 -12.4477 -54.3019 
3450 1 3 9.80332 20.2917 2.82073 1 1 -1 0.00943175 0.00165274 -0.0153803 17.403 4.27355 14.5746 
9435 1 3 14.1283 17.2706 2.91405 1 1 -2 0.0146369 0.0090347 0.017905 -6.8642 -1.40321 3.57973 
3452 1 3 9.43836 18.1859 1.62863 1 1 -1 0.0249453 0.0024197 -0.00184743 -4.23677 -20.7622 2.25029 
9871 2 6 12.0701 17.3047 8.37001 0 1 -1 -0.00598209 -0.00399953 -0.000545082 -24.6859 -5.27558 -18.3224 
9640 2 6 12.3544 17.6495 4.95108 0 1 -1 0.00174591 -0.00765622 -0.00623924 18.707 -19.0957 6.46079 
9637 2 4 10.1139 18.3202 4.56858 0 1 -1 -0.00135351 -0.0085065 -0.00368714 25.7727 17.0894 2.3924 
9638 2 5 11.4866 18.7401 5.16089 0 1 -1 -0.000806985 0.00135465 0.00218076 -30.9584 25.3922 -13.5802 
9642 2 7 11.3861 21.3372 4.53082 0 1 -1 0.00198044 -0.00301235 -0.00408916 13.0077 -16.0524 5.84888 
9641 2 2 12.2511 20.2731 4.49005 0 1 -1 -0.00169564 0.00391588 -0.00998884 -11.2049 -2.83687 16.474 
9644 2 7 13.3542 20.5917 5.25674 0 1 -1 0.00256307 0.00248296 0.000284956 -15.3239 -2.36844 -23.047 
9643 2 7 12.5723 20.1142 3.17411 0 1 -1 0.00371493 -0.00216238 -0.00192777 7.65977 2.03044 14.2446 
9639 2 6 11.1542 18.8556 6.5748 0 1 -1 -0.000920079 -0.0064821 0.00148152 6.6114 17.0214 -11.0223 
10467 3 8 10.416 18.1286 8.0635 0 1 -1 -0.00184696 -0.00177929 -0.00148057 5.01415 -2.14089 -2.03806 
9597 2 7 14.3693 23.341 7.07637 0 1 -1 0.00146267 -0.00588394 -0.00367492 12.5651 2.93981 18.5133 
9596 2 2 15.5396 22.9187 7.64184 0 1 -1 -0.00341837 0.00565135 -0.0015735 13.7576 2.44097 -48.4069 
9875 2 7 14.8574 18.4779 7.5812 0 1 -1 -8.22755e-05 -0.00254225 0.00152464 18.6944 -28.0648 13.0509 
9598 2 7 15.3171 21.7033 8.07716 0 1 -1 0.00092694 0.00608201 0.00108218 -4.77849 -24.1889 8.76598 
3734 1 2 11.3875 23.3739 7.51174 -1 0 -1 0.0038711 -0.00518884 0.00163551 27.7988 11.7417 71.7932 
9593 2 5 16.2797 23.8924 8.94416 0 1 -1 -0.00249173 0.00517662 0.000142564 -25.8278 39.69 53.6097 
3907 1 2 12.6365 24.1856 3.11825 2 1 -2 -0.00290995 0.00599238 -0.00883545 33.1276 11.7576 25.7742 
9599 2 7 16.4406 22.7619 6.62176 0 1 -1 -0.00154799 0.00316815 -0.00170669 -14.2184 6.18017 12.2974 
3912 1 3 14.1779 22.4978 4.00738 2 1 -2 -0.000749381 -0.0144755 0.026508 10.1381 11.0712 1.43307 
3906 1 2 14.7592 23.3876 3.68351 2 1 -2 -0.00108009 -0.00159028 -0.00237678 24.7597 -69.8608 -10.8562 
3742 1 3 11.0614 22.4134 7.96213 -1 0 -1 -0.0169271 -0.00625864 0.000663976 16.7695 3.49804 -12.2385 
3914 1 3 12.0463 23.324 2.92187 2 1 -2 0.0083506 -0.00853528 -0.0128773 -12.1579 -13.9192 -12.5993 
9873 2 2 14.8625 17.3143 8.34139 0 1 -1 0.00699673 0.00272795 0.00105102 32.7887 44.3229 -32.1137 
3733 1 1 10.1715 24.1151 7.48322 -1 0 -1 -0.00669741 -0.000841033 -0.00140194 0.419161 6.39166 -14.9344 
9864 2 6 12.5939 20.4465 8.41867 0 1 -1 0.00559945 0.000680413 -0.00288286 2.03842 -6.47318 16.4918 
9436 1 3 15.2675 17.3057 1.58765 1 1 -2 -0.0169683 0.013557 -0.0125306 12.9482 13.8378 0.517574 
3741 1 3 11.9083 23.2952 6.57569 -1 0 -1 -0.0263451 -0.0391423 -0.0059438 -7.88731 -8.74444 -18.731 
3743 1 3 12.1429 23.9316 8.21413 -1 0 -1 -0.00540605 -0.0081864 -0.0162862 -37.6912 -28.3757 -25.314 
3911 1 3 15.6836 23.0092 3.21274 2 1 -2 -0.0152655 0.0133774 0.0189711 -4.60574 4.80739 4.44443 
9354 1 3 16.9913 19.3183 1.80179 -1 1 -1 0.0206719 0.00514719 -0.011908 21.8919 2.25714 -17.3125 
3456 1 3 11.6781 21.7541 1.13963 1 1 -1 -0.00871707 -0.00739337 0.0152623 -40.748 -20.0728 -23.4673 
5596 1 3 8.59105 2.30464 9.61504 0 0 -1 -0.011381 -0.00258519 -0.00955064 6.65573 4.24607 -6.36543 
2827 1 3 4.89882 2.0296 9.46592 0 2 -2 0.00487052 0.0105956 -5.30975e-05 -18.2842 -10.8649 13.1347 
2820 1 2 4.18123 1.20482 9.74022 0 2 -2 -0.00104693 0.00220299 0.00765841 25.6366 3.72394 -41.037 
2828 1 3 3.71678 1.31199 10.6958 0 2 -2 -0.0205473 -0.00791528 0.0101486 8.5757 8.54539 19.1799 
3712 1 3 2.1404 5.55911 16.2489 0 1 -1 -0.0106465 0.00457252 -0.00502038 6.61243 -4.09613 1.1182 
3536 1 3 1.84435 5.67811 11.1139 0 1 -1 -0.0118839 -0.0218576 0.000559251 12.3567 -9.78613 3.16878 
2830 1 3 1.72804 2.3432 9.85818 0 2 -2 -0.00742458 0.0300565 0.013971 11.6298 6.55863 -19.8971 
1785 1 3 6.98986 2.35663 13.9149 0 2 -1 0.0127752 0.00720852 -0.00615826 11.3599 14.0973 33.8588 
1784 1 3 8.67167 3.06078 11.5382 0 2 -1 0.000633119 -0.000423136 0.0218735 -7.67006 -3.83491 7.02452 
1777 1 1 6.62939 2.53827 11.9684 0 2 -1 0.00432908 -0.00227607 -0.0065066 18.718 15.8492 0.0125662 
1792 1 3 7.8852 4.09748 12.8157 0 2 -1 0.00390314 0.00819388 -0.0168219 -10.1369 -13.3068 -31.8917 
1778 1 2 7.71758 3.52295 11.8393 0 2 -1 -0.00334439 -0.00289154 -0.00306314 -2.45097 -5.69676 21.3411 
3522 1 2 2.29395 4.83354 11.6842 0 1 -1 -0.000759637 0.00204683 -0.00265563 -31.4596 42.6681 2.04112 
10360 2 6 4.7309 5.6445 10.1252 0 1 -1 0.00657935 0.00816101 0.00121999 -0.647278 9.76404 -49.4615 
9903 2 2 7.79698 8.11907 11.4437 0 1 -1 0.0081925 0.00341998 0.00388122 41.3404 48.4729 4.36803 
3701 1 1 2.69189 8.11223 12.4096 0 1 -1 -0.000821231 0.00128413 -0.0021268 8.04532 36.9559 -46.5176 
9901 2 6 5.33135 7.15535 12.5223 0 1 -1 -0.00129489 0.00464898 0.0026794 58.9569 16.4379 -2.83139 
3521 1 1 3.22851 5.39889 12.684 0 1 -1 0.00186182 0.00603835 -0.00285374 20.6875 -17.9439 -6.99393 
9900 2 5 6.82154 7.48441 12.7364 0 1 -1 0.00288469 0.00377529 8.15691e-05 -94.0754 4.09917 29.4409 
3529 1 3 4.63875 3.81863 12.5607 0 1 -1 0.00637986 -0.0245872 0.00879607 -14.7547 -4.02043 -9.36081 
10460 3 8 3.85993 7.04698 13.5451 0 1 -1 -0.0042412 -0.00414087 -0.00509516 -27.3088 1.69934 4.10559 
3523 1 2 3.94774 4.2656 13.2822 0 1 -1 0.00133438 -0.0012275 0.00518184 4.01228 11.4597 -4.70211 
9902 2 6 7.37144 6.52184 13.635 0 1 -1 -0.00211564 -0.00439812 0.00854634 19.5194 -20.4865 12.1214 
9895 2 6 4.35006 8.51604 14.4693 0 1 -1 -0.000721532 -8.05448e-05 -0.00713337 -19.234 -13.1321 13.3398 
3524 1 2 4.90089 4.66467 14.4107 0 1 -1 -0.00148206 -0.00179655 0.00401507 -3.53977 -37.8119 11.842 
3525 1 1 4.63362 5.95668 14.8634 0 1 -1 -0.00291078 0.00208503 -0.00695565 -12.8695 23.4986 -11.5595 
3531 1 3 5.94979 4.54439 14.0825 0 1 -1 -0.0115974 -0.00637719 -0.000536329 -6.75392 3.42757 5.69486 
3532 1 3 4.69898 4.00244 15.2795 0 1 -1 0.00471393 -0.0157931 0.0244186 4.90211 -1.89771 -12.921 
3530 1 3 3.19417 3.55743 13.6269 0 1 -1 0.00932752 0.0416619 0.000307982 3.54646 -7.62245 4.07197 
3526 1 2 5.15583 6.15001 16.1805 0 1 -1 -0.00504946 0.00273212 0.00493924 15.0774 -22.9579 18.0223 
3697 1 1 2.0215 6.8873 14.654 0 1 -1 -0.000646189 0.0028576 0.0117284 -35.3467 1.01168 4.26782 
1783 1 3 7.39949 4.13185 11.0171 0 2 -1 0.0256424 -0.00964227 -0.00374029 0.366219 19.6551 -5.09416 
3535 1 3 6.21501 5.76501 16.229 0 1 -1 -0.0141196 -0.0115358 0.0153771 -19.6717 10.9502 -0.280371 
3534 1 3 5.1352 7.2102 16.3827 0 1 -1 -0.00399402 0.00369621 0.011967 1.1018 6.83481 9.25991 
9904 2 7 8.56318 7.27134 10.7732 0 1 -1 0.00177838 -0.00386665 -0.00695784 -11.2373 -27.0148 -1.50197 