ITEM: TIMESTEP
10000000
ITEM: NUMBER OF ATOMS
10479
ITEM: BOX BOUNDS pp pp pp
1.08224 48.8568
1.14437 48.8836
1.12017 48.8918
ITEM: ATOMS id mol type x y z ix iy iz vx vy vz fx fy fz 
6101 1 1 2.73342 7.71115 4.95747 1 0 -1 0.00359212 0.00775511 0.00158857 -27.1776 -16.5692 31.5593 
6104 1 3 5.13538 5.59496 2.70774 1 0 -1 0.0095339 -0.0207519 0.0156508 8.63489 -23.7099 -13.8878 
6098 1 2 4.96391 6.15698 3.58494 1 0 -1 -0.00257133 -0.00616637 0.000982221 18.1055 22.1028 26.2826 
8862 1 3 5.15508 4.08754 5.41138 1 2 -1 0.02998 -0.0242192 0.0184235 -17.5949 -32.2261 3.8136 
4639 1 3 6.57885 2.01681 3.84621 0 1 0 0.00608304 0.0033143 0.0191834 -9.04726 10.1462 -0.891349 
4630 1 2 7.53277 2.53308 3.92037 0 1 0 -0.00282338 0.00757851 0.00160226 -19.753 -33.0467 -20.2148 
4629 1 1 7.52556 3.67788 3.05982 0 1 0 -0.00577147 -0.00501194 0.00095989 8.64988 10.5092 3.78998 
6112 1 3 3.96461 6.02908 3.9286 1 0 -1 0.026748 0.00623524 -0.0014203 -15.8825 -1.8529 -0.867983 
6103 1 3 5.62013 5.93753 4.44629 1 0 -1 -0.0284589 0.0121323 -0.0025148 0.919471 -7.51505 -13.7632 
8854 1 2 4.42078 3.22917 5.5954 1 2 -1 -0.00367674 -0.00448887 0.00113213 26.6213 11.3371 -45.7256 
6097 1 1 5.2287 7.51712 3.22422 1 0 -1 0.00235505 0.000815007 0.00316747 -10.4285 17.952 3.22857 
6099 1 2 4.89408 8.50823 4.25285 1 0 -1 0.00682268 -0.00206869 0.00228876 -44.4965 -8.18289 31.9609 
6106 1 3 5.23214 8.19684 5.2703 1 0 -1 -0.0232607 0.00171912 -0.0181839 3.39814 0.458642 -17.5153 
4221 1 3 7.43323 5.11929 7.0297 1 1 -1 -0.025805 -0.00309514 0.00327852 -9.97841 -14.7838 -3.85352 
4628 1 2 8.4199 3.58393 1.92672 0 1 0 0.00139973 -0.00843473 0.00146349 -38.9603 -56.5631 -22.4792 
8861 1 3 3.86638 3.02466 4.63664 1 2 -1 -0.000458152 0.0125964 0.0187444 4.71434 8.84958 22.3654 
7510 1 2 4.91443 2.5228 1.21396 0 -1 0 0.00098503 0.00119987 0.00260839 31.088 15.3809 34.9007 
4633 1 3 8.21905 5.7796 1.71586 0 1 0 0.00568834 -0.00417264 -0.00535142 -6.76086 -0.467504 12.9796 
4223 1 3 7.72679 5.45858 5.28629 1 1 -1 0.0139406 0.011814 -0.0028467 -20.1532 -3.0251 -23.4278 
4214 1 2 8.05796 5.5704 6.27741 1 1 -1 0.00454976 -0.000924047 0.00127225 51.2604 -27.853 11.3135 
2251 1 3 2.0568 4.8916 4.31622 0 1 0 -0.0178998 -0.0373775 -0.00628922 16.4831 23.55 31.6751 
1389 1 3 4.89951 8.52534 7.83133 1 1 0 0.00206302 -0.007176 0.000940726 0.971009 4.5495 5.42653 
2250 1 3 2.5411 5.6607 2.40131 0 1 0 0.0202153 -0.0180994 0.00977743 -0.0475141 -17.5408 -14.3103 
4637 1 3 7.65538 2.79781 4.94066 0 1 0 -0.0061191 -0.00369438 4.69568e-06 11.152 6.3184 19.3443 
8863 1 3 3.78536 3.56553 6.38377 1 2 -1 -0.0103128 0.0328765 0.0360658 -13.2898 -4.23544 14.4944 
4220 1 3 7.79089 8.40253 5.23572 1 1 -1 -0.0198246 -0.00804141 -0.000954986 -17.2636 -0.209629 -6.62973 
8853 1 1 5.14141 1.99413 5.89407 1 2 -1 -0.00709813 0.00138444 -0.00337374 24.5729 31.0249 -2.37586 
1381 1 1 2.99353 8.58306 8.69827 1 1 0 0.00138249 0.00420748 -0.00221623 2.0739 23.6726 -53.0568 
4573 1 3 8.24159 8.14327 3.03192 0 0 0 0.0318061 0.00109896 -0.00339714 0.498023 13.4493 -3.71762 
7518 1 3 5.11463 2.95673 2.24464 0 -1 0 -0.0218296 -0.025893 0.00573407 -2.77234 -21.8366 -22.6653 
2252 1 3 1.89317 3.4051 3.67833 0 1 0 -0.0278392 0.0358447 0.00809535 10.5959 -31.326 -13.5613 
4638 1 3 8.1632 1.7199 3.55829 0 1 0 -0.0138826 0.00142432 -0.0104339 17.8981 9.22093 3.81733 
10387 2 4 8.82015 3.00945 7.97439 0 1 -1 -0.00592742 0.00613585 0.00281448 13.4387 -15.7398 -23.837 
4213 1 1 8.10676 6.90735 6.64761 1 1 -1 0.000201015 0.000725129 0.000859478 3.0982 43.3877 8.58076 
4212 1 2 8.60676 7.8694 5.67624 1 1 -1 0.00229314 -0.00142863 -0.00266088 -1.03702 -19.7891 4.2505 
2241 1 1 1.41394 4.11712 1.26036 0 1 0 -0.0040198 0.00407718 -0.000247271 13.8117 33.7143 22.1141 
8859 1 3 4.13435 1.59763 7.60723 1 2 -1 -0.0242939 0.00716396 -0.00293965 -10.3823 -2.5782 -2.29152 
3951 1 3 1.81552 2.05435 6.19881 0 2 0 -0.0141035 -0.0113432 -0.00462513 11.7056 5.19435 -1.57043 
6100 1 2 3.34683 8.84041 4.37751 1 0 -1 -0.000178546 0.00398126 0.00337277 51.5077 9.12788 34.2257 
6107 1 3 2.96404 9.00037 3.42702 1 0 -1 -0.0105143 0.00176109 -0.00928542 -14.7189 6.87226 -30.8636 
4566 1 2 8.87638 8.4733 2.19442 0 0 0 0.00257109 0.00372141 0.00594478 3.31351 -14.094 -15.6208 
6102 1 2 1.31179 7.80772 5.34105 1 0 -1 0.00671107 0.00837377 0.00599487 8.36568 10.856 -39.2843 
4627 1 2 8.22244 4.87759 1.1208 0 1 0 0.000804402 -0.00300604 -0.00173028 10.9603 -4.82115 -27.0568 
4636 1 3 8.04306 2.62148 1.33003 0 1 0 -0.00387528 0.00546472 -0.00902341 27.3035 57.3081 25.8387 
4575 1 3 8.58324 7.84458 1.30203 0 0 0 -0.0110434 -0.0117322 0.0232563 6.47224 26.4592 12.1084 
1392 1 3 1.29807 5.77109 8.0564 1 1 0 -0.00199964 0.00851215 0.00954801 27.9138 1.7073 2.09894 
2243 1 2 1.58038 5.11793 2.37655 0 1 0 0.00349378 0.00353681 -0.00336415 8.73349 -9.5079 -34.2572 
1383 1 3 2.55216 4.54192 8.0885 1 1 0 -0.00696636 0.00410301 0.0156001 4.99733 -6.29094 2.06081 
1378 1 2 2.37585 5.57834 8.34776 1 1 0 -0.00892941 -0.00633842 -0.00106496 -62.7554 -26.6947 -16.8742 
1384 1 3 3.04355 6.16563 7.78308 1 1 0 0.0260158 0.0164082 0.00661047 18.789 22.8848 -4.60393 
2244 1 2 1.47318 4.36163 3.65292 0 1 0 -0.00310695 0.00444323 0.00271258 -20.1323 4.37857 16.3538 
5511 1 3 15.4585 4.22116 1.79446 0 1 -1 -0.0104328 -0.0270977 0.00301256 -20.2428 9.66936 20.3523 
5514 1 3 14.8936 1.61582 1.29117 0 1 -1 -0.002957 0.00156477 -0.0114988 2.65168 2.30997 1.81257 
4574 1 3 9.91351 8.25306 2.42397 0 0 0 0.00115117 0.0125446 -0.0108237 3.1621 -10.8639 3.3977 
4219 1 3 9.12872 7.32208 4.88801 1 1 -1 0.0106545 0.00212258 -0.000966822 7.54462 7.36023 1.82919 
761 1 3 13.1229 4.83314 2.05138 1 0 0 0.000853293 -0.000702973 -0.00909258 9.89167 -8.49599 14.3493 
4222 1 3 9.1008 5.11861 6.31828 1 1 -1 0.0194328 0.00153613 -0.0200581 -26.4136 14.475 1.70888 
4635 1 3 9.45454 3.45444 2.27079 0 1 0 -0.00627053 0.00532228 0.0125077 -4.80262 4.51521 -1.6809 
10397 2 6 10.2474 2.63836 5.76855 0 1 -1 -0.00172431 0.00121318 0.000207931 -10.8514 -2.42444 18.1317 
9957 2 7 13.8182 5.79895 4.51236 0 1 -1 -3.47229e-05 -0.00347074 0.00056493 -2.81258 13.8488 -16.5845 
9956 2 2 13.9075 4.88884 5.44392 0 1 -1 0.00126968 0.00033868 -9.32229e-05 -16.6309 1.53426 7.86024 
9958 2 7 13.2275 3.78972 5.00439 0 1 -1 -0.0018442 0.000975499 -0.00356182 -4.91058 13.942 19.6809 
9959 2 7 15.148 4.53304 5.4357 0 1 -1 0.00106569 0.00374471 0.00150927 37.7715 -12.4911 3.68965 
9960 2 5 15.5139 7.55985 7.09717 0 1 -1 -0.000510528 -0.000534317 0.00197589 19.1976 -71.2027 -65.2579 
9953 2 5 13.4349 5.64149 7.04269 0 1 -1 -0.00145736 -0.00032488 -0.000568133 -82.5904 -11.4953 -49.5895 
9955 2 6 11.9338 5.64875 7.25193 0 1 -1 -0.00326251 -0.00504765 -0.00102753 88.8175 -11.8527 -2.01153 
9952 2 4 14.0944 6.82101 7.70066 0 1 -1 -0.0033012 -0.0022867 -0.00463646 -8.21103 24.891 30.7834 
10395 2 5 10.238 2.28913 7.20691 0 1 -1 -8.97334e-05 0.000722144 0.00226576 -14.0055 4.72084 -50.7619 
9961 2 6 15.1886 7.96637 5.71207 0 1 -1 -0.000479771 0.0105806 -0.00193146 3.16755 1.45344 19.1811 
10396 2 6 11.376 2.94435 7.8238 0 1 -1 0.00336282 6.34398e-05 -0.00390634 26.1777 15.0885 29.0952 
760 1 3 11.1187 6.58607 4.02344 1 0 0 -0.0164199 -0.0234535 0.0296261 7.96674 13.0074 13.99 
754 1 2 10.8419 5.66876 3.55914 1 0 0 0.000934669 -0.00539848 -0.00020938 -3.18645 31.86 -1.3014 
768 1 3 11.1728 4.85468 4.10239 1 0 0 0.0105407 -0.0323515 -0.0262497 19.2081 -34.0985 12.0064 
759 1 3 9.79606 5.64682 3.52121 1 0 0 0.00151841 0.0022214 0.0228385 -30.704 -3.68662 2.81728 
9954 2 6 13.4102 4.66546 8.0584 0 1 -1 -0.00256647 -0.00238469 -1.29821e-05 12.9891 -22.2597 20.8633 
1160 1 3 10.9842 7.56245 8.69635 0 1 -1 0.0301528 -0.0062496 0.00109465 5.69982 15.5 6.34042 
1324 1 3 12.1132 2.78048 2.33104 0 0 -2 -0.01565 -0.00854595 0.0188376 1.92179 -1.4939 5.77432 
9962 2 6 16.4325 6.37806 7.21485 0 1 -1 0.00403765 -0.00205829 4.82627e-06 -19.912 29.1656 -4.49319 
2821 1 1 14.5199 1.46563 8.11411 0 2 -1 -0.000245337 0.00490867 -0.000371434 -12.0448 13.3426 -8.47028 
1791 1 3 16.8577 7.2967 3.84355 0 2 0 0.00681566 0.0186459 0.0262508 -3.72939 -23.1547 -6.85804 
9963 2 2 16.0035 8.80115 8.16399 0 1 -1 0.0041569 -0.000967879 0.00192504 29.3774 4.8352 36.7506 
762 1 3 13.0165 6.6624 2.48357 1 0 0 -0.00521269 0.0139874 -0.0281559 13.4119 -15.925 -4.28937 
2820 1 2 15.7772 1.35785 8.72445 0 2 -1 -0.000838061 -3.244e-05 0.0026525 24.1187 -52.6145 17.793 
753 1 1 11.2662 5.74977 2.22921 1 0 0 -0.000620051 0.00271157 -0.00348861 -11.992 -18.1976 -27.042 
755 1 2 12.6511 5.78616 1.91265 1 0 0 0.00165024 -0.00248369 -0.00119869 -14.4057 46.3032 -23.0928 
4218 1 3 9.17599 9.04849 7.43931 1 1 -1 -0.0116667 0.00861712 0.00128669 -1.35756 -14.6792 -7.84718 
4211 1 2 9.44178 8.93448 6.37532 1 1 -1 -0.00150013 0.00437968 -0.00387191 42.0784 -14.7509 46.5733 
4209 1 1 10.9228 8.55508 6.37559 1 1 -1 -0.00453396 0.00306262 -0.00241216 -62.4349 -14.8173 -30.8872 
1323 1 3 10.7234 1.86222 3.18323 0 0 -2 -0.0253758 -0.0248596 -0.00197766 28.5723 7.20726 -19.1193 
7239 1 3 14.4971 8.60013 3.57733 0 0 -1 0.0187784 -0.00263759 -0.0157298 -8.10143 12.8946 -14.2551 
5506 1 2 16.2313 3.87175 1.17751 0 1 -1 -0.00196596 0.00391801 0.00901518 -1.95613 -12.9627 -3.25438 
10475 3 8 11.875 4.58269 8.89164 0 1 -1 0.000587422 0.00177486 0.000526944 -26.229 23.0072 -28.053 
10390 2 6 10.0891 4.79079 9.05244 0 1 -1 0.00705733 0.00432607 0.000621809 -26.0996 -22.997 2.76404 
1316 1 2 11.5725 1.83343 2.41693 0 0 -2 0.000214692 -0.0015455 -0.00281902 -35.5789 -26.3337 7.41467 
2826 1 3 16.3137 3.30538 8.0883 0 2 -1 -0.00205121 -0.00932677 -0.0124933 -10.2337 21.9618 -9.23069 
1792 1 3 16.2957 9.09404 1.17369 0 2 0 -0.0075958 -0.00628965 0.0194299 17.5402 1.94072 -5.61703 
2819 1 2 16.4466 2.70464 8.95475 0 2 -1 -0.00497381 -0.00307892 0.0100835 33.1409 4.58227 40.3258 
1229 1 3 16.9309 2.19558 5.43407 -1 0 -1 0.0184604 0.0245593 0.00681466 -1.22665 4.59939 9.24547 
1327 1 3 13.9786 1.33834 4.13205 0 0 -2 0.00374637 -0.000121987 0.0148819 -21.373 -11.2846 1.31827 
5520 1 3 16.8054 3.12567 1.6553 0 1 -1 -0.0199359 -0.00264107 0.0188851 16.2333 -9.35859 20.8899 
1390 1 3 4.37139 9.95408 8.83425 1 1 0 -0.0132258 0.0163207 0.00663176 18.0258 12.2678 -14.8518 
1382 1 2 4.11636 9.27194 8.02057 1 1 0 0.00280333 -0.00419894 0.00482563 -11.1709 -20.7037 23.8085 
6105 1 3 5.29937 9.44961 4.02158 1 0 -1 0.00912827 -0.00346735 0.024622 23.3984 19.21 -11.0871 
5856 1 3 1.42315 10.1863 2.90002 1 1 0 -0.0200243 0.00299777 0.00238435 15.4345 -11.5176 -5.62479 
6108 1 3 3.22214 9.74051 5.05844 1 0 -1 0.0188275 -0.0130261 0.0248483 -1.50664 -21.1158 -20.8745 
5080 1 3 7.02761 12.6835 5.96082 0 0 -1 -0.0343609 0.00956424 0.0100729 -1.5933 -0.09366 2.96567 
5079 1 3 6.9776 12.661 7.72323 0 0 -1 0.00924606 -0.0135226 -0.00289958 24.738 4.39457 21.402 
5073 1 1 5.40675 11.8658 6.93128 0 0 -1 0.00170866 0.000521499 -0.00272467 -16.5538 -18.4204 -8.27708 
4561 1 1 8.16538 12.8963 2.91413 0 0 0 0.0034829 -0.00150562 -0.00553805 28.5822 -5.51278 -5.85524 
5074 1 2 6.79976 12.0861 6.85391 0 0 -1 0.00338865 0.00656408 -0.00501147 2.73933 -17.5389 -37.6282 
5088 1 3 7.31345 11.0818 6.72887 0 0 -1 -0.0151901 -0.00818543 0.0032864 -7.83346 26.6572 17.5397 
5075 1 2 4.53229 12.9927 6.71 0 0 -1 -0.00259071 -0.00675998 0.00962041 -12.7207 -11.2393 -30.4213 
5076 1 2 3.15503 12.6762 7.3031 0 0 -1 -0.00625119 -0.00602618 -0.000314488 7.78007 -53.7774 -15.5234 
4565 1 1 8.90186 9.92185 1.96087 0 0 0 -0.00382161 -0.00184245 0.00566792 -29.0453 -12.6368 1.82259 
5077 1 1 3.26171 12.3368 8.73992 0 0 -1 -0.00273894 0.00279335 7.2746e-05 -16.1842 5.21433 -5.78255 
5081 1 3 4.39158 13.1742 5.5965 0 0 -1 -0.0258667 0.00404082 -0.0214859 9.77256 -2.74833 28.0613 
5082 1 3 4.90933 13.855 7.1938 0 0 -1 0.0231759 -0.0102238 0.0113493 11.5633 18.4476 8.72132 
5084 1 3 2.61953 13.5581 7.1986 0 0 -1 0.0234481 0.0133375 0.0160874 -27.7683 28.073 -0.118317 
5083 1 3 2.67505 11.8494 6.65143 0 0 -1 -0.00619999 0.0105854 -0.0214407 14.9195 25.749 31.982 
5842 1 2 1.54745 11.244 2.73967 1 1 0 -0.00264536 -0.000337986 0.00266704 -8.37395 -30.7532 12.1555 
5841 1 1 2.90145 11.6878 2.70262 1 1 0 0.00273142 -0.00658786 0.00247325 27.0701 5.79267 -30.144 
3645 1 3 6.79372 14.7661 8.72088 1 0 -1 0.00779713 -0.0160074 0.0265458 11.8458 10.1601 7.56055 
4562 1 2 8.42362 14.2828 2.64976 0 0 0 0.00900082 -0.0063872 -0.00234872 10.7622 3.25577 -28.4695 
1391 1 3 3.90848 9.7749 7.04206 1 1 0 -0.0154193 0.0324267 -0.0359224 -11.327 -5.55219 22.9006 
4576 1 3 7.60562 14.859 3.0258 0 0 0 -0.00480475 0.000101646 -0.0184082 -8.56374 11.2947 10.5584 
516 1 2 2.10632 15.7535 3.22535 0 1 -1 0.000427238 -0.00123516 0.00159916 30.9978 7.74249 7.97901 
524 1 3 2.69284 14.8833 3.62944 0 1 -1 -0.00818772 0.0280831 0.00556822 -15.0755 13.2674 -7.8011 
2494 1 3 3.21314 16.6034 7.39707 -1 0 0 0.00527933 -0.00491654 0.0258327 -8.93089 16.7769 9.50626 
2493 1 3 4.49816 15.8074 8.1883 -1 0 0 0.00195307 -0.00469348 0.00466777 -4.21022 27.6629 8.00487 
2486 1 2 4.09407 16.8465 8.00259 -1 0 0 -0.00222545 0.0074085 -0.000385542 24.1914 -40.8514 13.5775 
6736 1 3 7.32535 15.4101 5.82999 0 -1 -1 0.0145889 -0.0159119 0.0196025 5.9433 0.769913 -13.5466 
6728 1 3 8.23889 16.4474 6.85657 0 -1 -1 -0.00329514 0.00325286 0.00807717 12.9708 -19.9621 -20.346 
6722 1 2 8.34852 15.804 5.92617 0 -1 -1 0.00395722 -0.00288952 9.78254e-05 -28.815 13.1379 57.3592 
6727 1 3 8.63462 16.4998 5.15164 0 -1 -1 -0.00470924 0.0141352 -0.0288508 5.69822 -6.67478 -16.502 
5843 1 2 3.68041 11.2592 1.48562 1 1 0 0.000716954 0.000610754 0.00103739 22.5291 -2.95617 23.8984 
5844 1 2 5.11437 11.9057 1.44741 1 1 0 0.00759208 0.00841021 0.00253787 -11.548 -51.6084 -3.4027 
5854 1 3 4.40644 14.5715 1.72512 1 1 0 -0.0130304 -0.0244757 -0.0189573 -3.16405 -2.03795 -13.1926 
4571 1 3 8.46003 10.5889 3.93972 0 0 0 -0.0296021 -0.0184017 -0.0145829 -25.7132 -2.71021 4.92282 
5852 1 3 5.45649 12.1421 2.45585 1 1 0 -0.0337425 0.00405124 -0.0114794 1.47366 9.85628 -0.918595 
5850 1 3 3.77988 10.1551 1.54438 1 1 0 -0.00916809 -0.0095346 0.00550522 0.406093 13.5906 -1.69951 
4567 1 3 8.47536 14.4555 1.55471 0 0 0 0.0139079 0.00721712 -0.00378777 -2.20774 -6.57801 10.7461 
523 1 3 2.76314 16.3609 2.59247 0 1 -1 0.00880307 -0.0140784 0.0190068 3.40979 -8.62851 0.995311 
3575 1 3 7.05401 9.39191 8.58073 0 0 -2 0.027228 0.00586698 0.00242429 -3.10228 3.91702 18.4833 
522 1 3 1.31668 14.5909 1.56015 0 1 -1 -0.0186514 0.00346784 0.00181058 -9.70885 12.0477 14.453 
3646 1 3 8.5884 14.8518 8.87454 1 0 -1 -0.000302009 0.0208643 0.0236199 -12.4412 -14.6805 16.5615 
5087 1 3 1.9421 10.8879 8.7363 0 0 -1 -0.00324795 0.000907699 -0.0255893 -12.84 -30.2789 -2.35951 
517 1 1 1.75549 16.6687 4.31551 0 1 -1 0.00489883 0.00359379 -0.00148581 16.2376 -34.4971 9.78147 
8836 1 2 14.4584 14.7416 1.78559 -1 0 0 0.0021992 -0.00377914 0.00208918 15.026 25.5984 -9.65586 
7233 1 1 14.0994 9.29575 1.60561 0 0 -1 0.00414441 0.000807766 -0.00574405 -26.4274 23.9103 2.28212 
8843 1 3 14.1025 15.7727 2.02626 -1 0 0 0.0205991 0.014888 -0.0211986 -2.40371 -12.5934 -22.742 
4564 1 2 9.16776 10.6874 3.15427 0 0 0 0.00577756 -0.00394726 0.0100967 46.2534 -13.7213 -0.55663 
8844 1 3 15.3911 14.7385 2.31154 -1 0 0 -0.0283734 -0.00311094 0.0143172 7.17717 -17.5221 17.8981 
7248 1 3 15.2428 10.1857 3.09484 0 0 -1 -0.00375022 0.0251934 -0.0164113 -22.8842 -16.7684 -1.64379 
7240 1 3 13.5052 10.1141 3.4456 0 0 -1 0.0138413 0.0126688 -0.0181073 -15.3242 1.95254 4.55553 
4569 1 3 10.1052 12.5616 3.52433 0 0 0 0.0158855 0.0106281 0.00532798 9.0951 5.66446 17.7717 
4563 1 2 9.43798 12.1647 2.80927 0 0 0 -0.00155652 0.00398008 0.00149091 -17.5715 -19.269 -33.4251 
4572 1 3 10.0772 10.1958 3.56597 0 0 0 0.0103464 0.0172488 -0.0204979 -4.57504 17.1356 -3.98398 
4568 1 3 9.40733 14.5848 3.04847 0 0 0 -0.00220344 0.00958118 -0.00735602 -10.5854 2.30372 6.99169 
8845 1 3 11.8655 13.3105 3.54161 -1 0 0 0.0319704 0.00462761 -0.0102732 33.7264 28.2972 -13.925 
8837 1 1 13.4685 13.7979 2.2403 -1 0 0 -0.00657161 -0.00257598 -0.00388358 2.14622 -19.7881 -1.03672 
4224 1 3 12.7609 9.5031 6.05787 1 1 -1 0.000272729 -0.0171678 0.0019913 7.05314 -15.1963 -10.5172 
4217 1 3 9.14577 9.91813 6.05935 1 1 -1 -0.0103965 0.00914776 -0.0126285 16.8881 10.7159 -22.8886 
9965 2 7 15.15 9.8053 8.11637 0 1 -1 -0.000797556 -0.000862297 -0.00615938 -11.0492 17.0927 2.88036 
167 1 3 13.8268 13.7107 8.06155 0 0 0 -0.0179302 -0.0122774 0.0119388 -5.75939 -5.69426 1.49837 
4215 1 3 11.9412 9.79341 7.54058 1 1 -1 -0.00449722 0.00874891 0.0146173 -1.08676 5.77596 11.8426 
168 1 3 12.9393 12.8094 6.73833 0 0 0 -0.00663588 0.0111027 0.00291006 22.7803 20.9626 5.26226 
162 1 2 13.8442 13.4504 6.99993 0 0 0 -0.000271648 0.00361209 0.00478442 -47.5016 -17.3909 24.6984 
4216 1 3 11.3193 10.5159 6.04308 1 1 -1 -0.00923925 0.00519218 0.0101663 2.70346 -1.91445 1.04315 
161 1 1 14.9971 12.6899 6.82418 0 0 0 -0.00148744 -0.00097912 0.00181963 39.9605 -25.5558 -12.9282 
4210 1 2 11.7843 9.62719 6.49004 1 1 -1 -0.00520332 -0.00576937 0.0063027 9.4619 47.1011 11.8872 
163 1 2 15.4611 12.4817 5.45139 0 0 0 -0.000817925 0.000813071 -0.00237187 -15.016 52.4038 3.19879 
170 1 3 14.5661 12.3627 4.82974 0 0 0 0.00857039 -0.0260652 -0.0179328 6.22232 -14.9357 -2.56526 
169 1 3 15.9239 13.4528 5.10018 0 0 0 0.0308086 0.00752886 0.0236522 -9.64909 -21.8915 9.40222 
176 1 3 13.8487 14.3921 6.51459 0 0 0 -0.000563623 0.000212696 -0.0057778 5.04552 13.3505 -21.3479 
8846 1 3 12.0481 15.0131 3.08698 -1 0 0 -0.00200334 0.0198005 -0.027276 0.97793 16.8065 7.13332 
8838 1 2 12.6308 14.1471 3.35209 -1 0 0 -0.0044093 0.00611733 -0.00639347 -38.4591 -49.5872 2.52709 
8847 1 3 13.1813 14.1649 4.27305 -1 0 0 0.0143288 -0.000138974 0.0011401 11.702 17.4083 7.2909 
6725 1 1 11.239 14.6227 8.53891 0 -1 -1 0.00513062 0.000729748 0.00437701 8.01694 3.00674 -40.3342 
8063 1 3 14.7299 16.1791 5.36317 1 0 0 -0.00589544 0.00429276 0.0118465 12.8418 0.0416505 15.7036 
6730 1 3 11.2565 14.1634 6.10954 0 -1 -1 -0.00417036 0.013617 -0.0161645 10.3602 -6.2021 -10.7787 
6731 1 3 10.2379 16.2554 7.94904 0 -1 -1 0.0202235 -0.00650168 0.0308306 -11.2653 13.4434 -7.78208 
6724 1 2 11.0476 15.6838 7.53388 0 -1 -1 -0.00544627 0.00457003 0.00618376 -12.3224 -17.0708 34.6583 
6721 1 1 9.25237 14.6783 6.16194 0 -1 -1 -0.000881073 0.00667998 -0.00276574 32.2118 23.3802 -8.30527 
6723 1 2 10.6978 15.0782 6.18892 0 -1 -1 0.00306485 -0.00445654 0.00059958 -51.3072 -13.7244 -3.951 
6729 1 3 10.8562 15.7726 5.3546 0 -1 -1 0.0149333 0.0177036 -0.0032886 8.09526 -2.37292 2.30518 
6732 1 3 11.9074 16.3141 7.47204 0 -1 -1 0.0130939 0.00065659 0.0144689 16.21 6.17505 -2.25272 
7234 1 2 14.3105 9.54927 3.01897 0 0 -1 -0.00302739 -0.00624263 0.000111327 48.1097 1.81527 -0.196739 
4570 1 3 9.92787 12.2281 1.78582 0 0 0 0.0149222 0.0088062 0.0181461 -18.1033 3.09028 22.5306 
7242 1 3 12.9081 11.07 1.3504 0 0 -1 -0.0131831 -0.0117677 0.0137079 2.09295 -13.5601 -7.99067 
8061 1 3 13.4226 17.0409 4.91792 1 0 0 -0.00806036 0.00869295 -0.0234054 -17.9903 15.1661 11.5462 
2633 1 3 16.8233 14.3291 7.12631 -2 1 -1 -0.00846248 0.0263168 0.0267807 6.20543 -4.79267 -0.488177 
172 1 3 16.2953 10.3803 5.66531 0 0 0 -0.0125748 -0.00840975 0.00642933 -12.6828 9.34068 7.61188 
164 1 2 16.5187 11.3894 5.29782 0 0 0 0.00123287 0.00354025 -0.00412109 0.243213 -24.4721 -20.0364 
171 1 3 16.6078 11.252 4.2091 0 0 0 0.00337816 0.0180078 0.00202604 12.9276 6.08253 6.56261 
1761 1 1 3.45263 24.3151 2.45623 -1 1 0 -3.12741e-05 0.00824435 -0.002804 -4.42436 3.65498 21.2839 
1776 1 3 3.2501 22.8149 3.82111 -1 1 0 0.0160821 0.0019059 0.00819963 1.43622 -8.53562 7.47436 
3024 1 3 2.39893 21.4859 7.32044 1 2 0 -0.0177861 -0.00768686 -0.00230108 7.3528 -13.2281 11.4807 
1951 1 3 4.29918 18.3402 2.62096 0 1 -1 0.0226839 0.010272 0.0142476 17.4198 -11.1857 -37.7743 
1950 1 3 4.49783 17.0783 1.26291 0 1 -1 -0.000948969 0.00414789 -0.0072408 3.20456 -1.99107 -2.3598 
1947 1 3 2.93235 20.4874 2.03514 0 1 -1 -0.0173389 0.00231678 0.0285429 -2.69268 3.13895 3.7565 
2487 1 3 7.70027 18.0222 3.18948 -1 0 0 -0.00616741 0.0119682 0.00822712 10.074 8.66783 6.93255 
1942 1 2 4.50003 18.1408 1.50045 0 1 -1 0.00369518 -0.0060085 -0.0038102 -18.0281 55.8831 31.5129 
2495 1 3 4.01351 17.4298 8.96136 -1 0 0 -0.00425704 -0.00683757 0.0117688 -15.5608 -13.4295 -18.2204 
2492 1 3 4.1537 19.3501 6.99042 -1 0 0 0.0138897 -0.00062589 -0.00908141 -10.9347 -7.41616 10.4946 
5933 1 3 5.59964 21.7871 3.73471 0 1 -1 0.00281988 0.0162476 0.00358013 -12.5199 -7.6241 40.5332 
3016 1 3 1.56398 21.3705 5.6647 1 2 0 -0.0178659 0.0121106 -0.00754105 22.6242 29.8902 42.8658 
5926 1 2 5.78847 22.037 2.75504 0 1 -1 0.00177855 -0.00415036 -0.00179393 74.0912 13.9523 -27.4676 
4741 1 1 7.85386 23.4935 6.66585 0 1 -2 -0.000581939 -0.00365291 0.00258595 8.11972 -3.91514 -26.7787 
2491 1 3 3.74656 18.1357 5.72886 -1 0 0 0.0345642 -0.020783 -0.00329483 -6.83223 -7.88857 1.48249 
2481 1 1 6.30211 18.2026 4.7107 -1 0 0 -0.00157144 0.000905263 -0.000168324 28.7071 19.9883 -26.2334 
2482 1 2 7.28011 18.8553 3.77629 -1 0 0 0.00254428 0.0019641 0.0125332 -19.2303 -65.3371 43.3404 
2484 1 2 4.51082 18.5048 6.40407 -1 0 0 0.00695492 -4.56093e-05 -0.00159046 28.8043 52.8694 -36.0335 
2485 1 1 5.06257 17.5042 7.20361 -1 0 0 -0.005076 -0.00441665 0.00267135 15.9214 -14.5916 8.98812 
2483 1 2 5.63308 19.1765 5.52458 -1 0 0 0.00192538 0.0084204 -0.00456629 -47.3219 -3.64332 -4.40112 
2490 1 3 6.30016 19.8395 6.04672 -1 0 0 0.0293198 -0.00151618 -0.0155412 11.4298 -4.78543 14.5122 
2489 1 3 5.06283 19.8427 4.8582 -1 0 0 -0.0124607 -0.0169392 0.00330348 7.0985 -4.58489 -1.4051 
5925 1 1 7.23171 21.743 2.46203 0 1 -1 0.00108955 -0.00217259 0.00419109 -36.7264 3.88654 -1.75136 
4751 1 3 7.88676 21.4687 7.25917 0 1 -2 -0.0115612 0.00598169 -0.00659324 0.0684675 15.7468 -33.2889 
3015 1 3 2.83751 22.6537 6.05501 1 2 0 0.00376885 -0.00307492 0.026615 -12.6125 -7.51676 4.61373 
108 1 3 5.52845 21.2455 8.19365 1 0 -1 -0.00169521 -0.00578564 0.000194353 -6.51748 -1.52116 2.77547 
3010 1 2 2.01694 22.0587 6.50579 1 2 0 -0.0103665 -0.00339343 0.00911298 -17.8453 -27.2171 -58.8116 
3011 1 2 1.29849 23.8187 8.09717 1 2 0 0.010838 -0.0100055 0.00900558 12.8996 -1.03673 0.49787 
5934 1 3 5.1348 21.5796 2.09073 0 1 -1 0.0212951 -0.00181645 0.00466669 -16.8725 -24.9059 -18.3756 
107 1 3 6.02654 22.7528 9.04409 1 0 -1 -0.00675846 0.026106 -0.0258758 -1.7644 -27.0811 3.44851 
3023 1 3 5.78496 24.4001 7.31306 1 2 0 -0.00218605 -0.0127785 -0.0116516 -1.15689 -3.77129 7.7102 
5935 1 3 5.67715 23.0769 2.57975 0 1 -1 0.00789602 0.0132987 0.00577243 -6.67264 14.7816 7.429 
525 1 3 1.44255 18.2424 3.06576 0 1 -1 -0.0358425 0.0197415 0.0247279 -31.11 -15.093 24.5639 
3013 1 1 3.76493 24.0145 7.6264 1 2 0 0.000573396 0.00525049 0.00288245 -19.3968 22.9601 14.5867 
2496 1 3 6.7411 19.4313 3.09358 -1 0 0 -0.0102973 0.00453089 0.00222537 -11.9794 28.5225 -15.0366 
4742 1 2 8.01097 22.0876 6.30165 0 1 -2 0.00293055 0.00283602 -0.00358661 7.66868 -8.11382 49.0427 
4750 1 3 7.35361 21.7856 5.51896 0 1 -2 0.00570733 0.0263754 0.0103587 -20.4668 -0.48091 -7.48003 
4749 1 3 8.9947 21.9107 5.90107 0 1 -2 -0.0125593 0.00965681 0.0301294 10.1469 6.60363 3.67339 
2488 1 3 8.0064 19.3781 4.41501 -1 0 0 0.0240108 0.00748279 -0.0130513 2.8053 4.2372 -13.5483 
4740 1 2 8.21419 24.3942 5.55247 0 1 -2 0.00464733 0.00533721 0.00188739 -4.18285 6.42331 7.08105 
4748 1 3 7.7039 24.1273 4.66465 0 1 -2 0.00425649 0.00225116 -0.0222788 -24.1636 -3.52343 -13.7326 
1769 1 3 1.67453 24.3904 1.40098 -1 1 0 0.00433396 -0.0121634 -0.000460012 7.90545 -3.34397 -4.08427 
526 1 3 1.09122 18.5154 4.81952 0 1 -1 0.00756297 0.0118847 0.0161857 -4.94087 -8.29165 -5.96812 
3017 1 3 1.54485 23.2963 9.0246 1 2 0 0.0184698 0.00208155 0.000672753 4.51812 -9.49656 -6.79118 
6240 1 3 7.45883 24.2719 1.45175 -1 1 1 -0.004293 0.0180561 -0.0168794 -17.2163 18.6346 -1.89184 
109 1 3 7.42555 19.35 9.05829 1 0 -1 0.00080309 -0.00327784 0.00305672 11.9152 -20.5693 -22.787 
3014 1 2 4.83263 24.9206 7.31516 1 2 0 -0.0023842 0.00469394 0.00385934 2.48255 44.7484 -5.92936 
8764 1 3 1.56291 17.828 8.60459 1 1 -1 0.0481078 -0.0118558 0.0404542 -1.18026 10.5074 -28.0331 
1767 1 3 1.86442 23.9236 3.77045 -1 1 0 -0.0110211 -0.00647994 -0.00638644 9.59544 0.0585183 1.06305 
1762 1 2 2.97054 23.8558 3.76215 -1 1 0 -0.00236335 -0.000406582 -0.00446455 -10.3711 18.5327 3.21176 
1768 1 3 3.35795 24.44 4.65768 -1 1 0 -0.0279988 0.0204309 -0.00329869 -1.22794 -12.0423 -29.7113 
1763 1 2 2.64399 23.859 1.35511 -1 1 0 -0.00629359 -0.00770739 0.0037981 3.84946 8.84157 -7.28169 
1770 1 3 2.47109 22.7971 1.43058 -1 1 0 -0.00140392 0.0255667 -0.0261167 0.875224 -5.85881 2.06212 
3012 1 2 2.48539 24.7626 7.72903 1 2 0 0.000646832 0.00266529 0.00155306 7.20248 -3.01404 -5.64591 
6232 1 3 5.86466 24.927 2.02462 -1 1 1 -0.0319146 -0.0171087 0.00796995 13.7834 17.6954 21.7274 
8062 1 3 13.9379 17.0963 6.76651 1 0 0 0.0145637 0.0192074 -0.0121912 -5.18073 -6.5147 -28.7108 
1747 1 2 11.8374 18.8028 1.38883 0 1 -1 -0.00172577 0.0014526 0.00421886 25.7729 1.87387 -16.6873 
3339 1 3 9.82633 24.3981 8.81477 1 1 0 0.00828307 0.0269651 -0.0154144 -4.17895 11.2576 -9.24717 
5936 1 3 10.2508 24.1846 1.89616 0 1 -1 -0.0120581 0.00283295 -0.0208373 1.94551 -0.0854085 6.69759 
3337 1 3 11.2717 23.1413 7.23571 1 1 0 -0.00393256 -0.0267147 0.0170444 9.24462 20.4496 5.08366 
5928 1 3 9.78901 22.7853 2.90162 0 1 -1 0.0069132 0.00387577 -0.00341672 0.307359 -2.32914 -10.7917 
10272 2 7 12.2258 24.698 4.02675 0 0 -1 -0.00135074 0.00243143 -0.00607085 9.04643 -14.7276 -6.55179 
8054 1 2 14.209 17.088 5.66672 1 0 0 -0.00318978 -0.000693594 0.0030755 18.3461 -5.24307 -7.09859 
3335 1 3 13.7278 22.5559 6.45246 1 1 0 0.00547606 0.0416289 0.0143635 6.77085 -2.26953 -6.86157 
1749 1 1 10.7964 19.5915 3.54091 0 1 -1 -0.00439707 -0.00620827 0.00354153 -33.2405 7.82355 -7.91811 
8060 1 3 15.0582 18.3267 3.33262 1 0 0 -0.0206044 0.00465464 -2.35894e-05 -11.7886 10.7918 5.18386 
1748 1 2 11.9599 19.5725 2.74584 0 1 -1 -0.00276263 0.00716344 0.00317775 0.508357 -59.4558 -23.8631 
8052 1 2 15.7186 18.4377 4.19304 1 0 0 0.00735249 -0.0025147 0.00106863 4.13459 -40.8663 -30.8843 
1756 1 3 12.6513 18.9927 3.32496 0 1 -1 -0.0157441 -0.00884641 0.00149892 17.8812 0.977476 6.92436 
1750 1 2 10.9267 20.4442 4.68628 0 1 -1 0.00110311 0.00702166 -0.00688675 14.9527 -24.281 -5.25573 
1758 1 3 11.8648 20.0943 5.14468 0 1 -1 0.0203438 0.00852967 0.0228487 -9.96802 6.02646 14.1788 
1757 1 3 11.0647 21.4559 4.36397 0 1 -1 0.0362129 -0.000747781 -0.0290048 -2.17436 15.5306 -3.2745 
1759 1 3 10.0333 20.3259 5.30514 0 1 -1 -0.0277427 0.0136487 0.00928943 6.48526 -2.60574 3.95196 
3342 1 3 10.309 21.8368 8.4065 1 1 0 -0.0247501 -0.00102267 0.0116575 -2.32158 -2.21512 3.61297 
8053 1 1 15.0594 18.2443 5.43325 1 0 0 0.00348559 -0.00574357 0.00330425 -12.9737 6.37709 26.5403 
2669 1 3 12.4177 19.4976 7.49231 1 2 -1 -0.00928388 -0.00852619 -0.0106164 -11.4991 -5.00581 -7.58691 
5927 1 3 11.3146 22.8512 1.96997 0 1 -1 0.0294556 0.0181263 -0.00571641 26.7436 -15.6495 -0.0430242 
3330 1 2 14.0189 23.4916 6.92722 1 1 0 -0.00678243 -0.000425018 -0.00900935 -8.95518 -0.633236 17.9993 
3336 1 3 15.0583 23.5299 7.28061 1 1 0 -0.00717103 0.00516951 0.00940448 -3.69385 -10.3171 0.699804 
3329 1 1 13.1172 23.6988 8.02531 1 1 0 4.25906e-05 0.00085285 0.00400194 -8.34631 4.43798 26.4938 
8050 1 2 15.9685 22.2007 4.38309 1 0 0 -0.000124332 0.00440231 -0.00471414 -15.6306 23.0061 -45.6094 
8049 1 1 15.3841 20.9076 4.29737 1 0 0 -0.00389277 -0.00562426 -0.0033599 35.5869 -51.0189 0.061388 
8055 1 3 15.1888 22.8784 3.91188 1 0 0 -0.0109164 -0.00772084 0.00811724 24.5439 -9.30658 14.7354 
2671 1 3 12.5998 20.8602 8.60139 1 2 -1 0.00603303 0.00749262 0.000672386 -10.7765 9.78597 6.68605 
2670 1 3 13.9666 20.0346 7.98837 1 2 -1 0.0207065 -0.0235653 -0.0236609 21.718 0.241481 -4.99312 
2662 1 2 12.9691 19.8947 8.32234 1 2 -1 0.00217841 -8.47711e-05 -0.00382851 4.62671 -20.4102 15.6428 
4747 1 3 9.2269 24.2474 5.26371 0 1 -2 -0.00436417 -0.022339 -0.00278882 22.9637 -0.248984 4.77331 
5922 1 2 10.2949 23.0951 1.96785 0 1 -1 -0.000102492 -0.00465921 -0.000287559 -20.5885 33.067 20.0089 
1755 1 3 12.3372 20.506 2.53559 0 1 -1 -0.0223232 -0.00702357 0.0259626 11.331 43.7199 -0.62544 
3344 1 3 13.8891 24.3315 6.3045 1 1 0 0.00092181 0.00244054 0.000970349 -2.11573 13.4433 -23.6162 
5929 1 3 9.24675 20.59 1.60165 0 1 -1 -0.0180081 -0.0126816 0.0112672 11.6697 29.6343 -6.10687 
3331 1 2 11.7156 24.034 7.75314 1 1 0 0.00332482 -0.000839565 -0.00234101 7.12177 -50.1093 -31.6922 
3338 1 3 11.7379 24.8458 7.03548 1 1 0 -0.0115024 -0.0049953 0.00269852 -10.7075 12.2951 3.6074 
3086 1 3 16.9723 19.9236 7.93605 1 2 0 -0.024103 -0.00266457 -0.0203218 12.7677 -8.42419 4.27662 
3332 1 2 10.8822 24.2818 9.02643 1 1 0 0.00405686 -0.0100954 0.00288892 14.3129 15.4137 14.9559 
8059 1 3 16.3953 17.5763 4.0318 1 0 0 0.0103695 -0.0395471 -0.014992 5.59412 14.7933 8.5093 
8056 1 3 16.9144 22.2348 3.79816 1 0 0 0.0181605 0.00449912 -0.0134708 -12.542 0.95343 4.29406 
8058 1 3 16.9304 19.922 3.20782 1 0 0 0.0500251 0.001074 0.00245839 -0.0945584 -3.3908 8.92138 
8064 1 3 16.1582 22.4829 5.39024 1 0 0 0.000831194 0.0326857 -0.00477736 2.62055 2.0359 19.8346 
8051 1 2 16.4208 19.7878 4.18076 1 0 0 0.000921519 -0.00525878 -0.00165598 -33.017 43.7318 -15.8144 
1745 1 1 11.7149 17.3684 1.61172 0 1 -1 0.00593375 -0.00227568 0.00410437 -2.50761 -19.232 1.36673 
10394 2 7 7.24246 5.76 9.41835 0 1 -1 0.00474218 0.00456502 0.00264446 -1.09064 -34.8022 21.0376 
1377 1 1 2.43624 5.7141 9.75649 1 1 0 -0.00230766 -0.00379998 0.0019243 4.88447 3.60784 15.6914 
1387 1 3 4.15736 7.44351 9.96529 1 1 0 0.000420677 -0.00784503 -0.00487139 14.0844 -7.62089 -9.73373 
1380 1 2 3.24568 8.00368 9.95854 1 1 0 -0.00367311 -0.00743285 -0.00249308 28.4551 -4.47854 31.399 
9451 1 3 1.31122 3.13182 10.1731 0 2 -2 0.00965369 -0.0106467 0.00389272 -8.10973 0.186003 -5.12385 
3584 1 3 7.58094 7.8914 9.17137 0 0 -2 0.0104831 0.00856984 0.00879536 22.4062 -4.4357 -3.67284 