ITEM: TIMESTEP
0
ITEM: NUMBER OF ATOMS
10479
ITEM: BOX BOUNDS pp pp pp
1.08224 48.8568
1.14437 48.8836
1.12017 48.8918
ITEM: ATOMS id mol type x y z ix iy iz vx vy vz fx fy fz 
7988 1 2 5.11889 7.07498 3.44959 1 0 0 -0.00357613 -0.00280597 0.00256991 -19.7798 1.74921 26.1969 
7987 1 2 3.76957 7.3912 2.76003 1 0 0 -0.00365472 7.60104e-05 0.00342964 12.4505 -9.5333 -5.82749 
7996 1 3 4.96269 6.7554 4.48544 1 0 0 0.00389794 0.00500976 -0.0089002 -3.39807 5.50303 -0.726083 
7993 1 3 3.03918 6.6208 2.87559 1 0 0 -0.010338 0.0387948 -0.00278089 -5.39213 -17.3139 10.3942 
7995 1 3 5.68806 6.30518 2.99216 1 0 0 -0.02002 0.00429992 -0.00433238 2.13605 -15.9232 -17.4739 
4612 1 2 2.77038 2.93896 6.34091 1 0 0 -0.00158246 -0.00188732 -0.00048133 0.717324 -32.2294 -18.826 
1329 1 1 6.36615 8.51862 8.93281 0 1 1 -0.00355769 -0.000680169 0.00355207 -18.0806 -10.6521 8.90107 
4620 1 3 3.10757 3.97768 6.3378 1 0 0 0.0274044 0.000339414 0.00529829 2.78467 -0.246764 -4.5866 
1331 1 2 7.04802 8.38869 7.6777 0 1 1 -0.000191254 0.00549118 -0.00116831 17.8558 11.0613 14.9757 
1338 1 3 6.44777 8.7818 6.90611 0 1 1 -0.00268598 -0.00405745 -0.0113375 -18.7 4.73305 -19.7432 
4613 1 1 2.65568 2.39992 4.96965 1 0 0 0.000525379 0.00111112 -0.000581586 2.96397 18.7644 13.4233 
4623 1 3 4.72576 2.53009 4.5379 1 0 0 0.00664055 -0.00502993 0.00403135 -6.96436 0.281444 7.01808 
3673 1 3 1.5513 4.93227 3.84918 0 0 0 -0.0141581 -0.00159719 0.00361267 26.9657 -4.31963 8.10904 
1341 1 3 7.32014 4.51867 5.96451 0 1 1 0.0380532 0.0137091 -0.0122733 10.6788 10.3261 -3.6868 
7999 1 3 7.24776 7.96748 4.87601 1 0 0 -0.0027047 0.00398953 0.000165041 2.52232 -2.64375 24.3957 
7994 1 3 3.33006 8.30263 3.13731 1 0 0 -0.0119406 -0.0284651 0.00341861 0.351618 11.6445 -3.77736 
3724 1 3 8.56316 2.8131 6.01187 1 0 0 -0.0168014 0.00190717 -0.00763136 7.78204 -17.0737 -30.637 
7998 1 3 7.5548 7.22828 3.30006 1 0 0 -0.0069792 -0.0167603 -0.000266005 12.6996 15.3722 8.18422 
4614 1 2 3.88736 1.81653 4.52291 1 0 0 0.00290423 0.00124064 0.0110753 5.96171 24.9888 -13.6241 
1334 1 2 6.42024 4.88266 6.43456 0 1 1 0.00167791 -0.000164242 -0.00162361 -26.8477 0.926561 -14.3694 
1343 1 3 6.32972 4.36078 7.37974 0 1 1 -0.0122867 -0.0281028 0.0033581 -1.74764 2.48546 7.15075 
7989 1 1 5.88881 8.26605 3.429 1 0 0 -0.00273396 0.00289019 0.00426322 -13.0542 31.7099 -4.76732 
1333 1 1 6.37045 6.34933 6.61856 0 1 1 0.00341761 0.00430823 0.00326506 5.68486 -21.349 -4.9933 
1332 1 2 7.42754 6.94611 7.41964 0 1 1 0.00464478 -0.00393324 -0.00412597 11.2686 -15.0192 -20.8614 
1342 1 3 5.56435 4.56886 5.77149 0 1 1 -0.00889598 -0.023163 0.00929046 15.7714 8.3514 14.7711 
4619 1 3 3.50567 2.27154 6.89191 1 0 0 -0.00404717 -0.0138101 0.0110134 -18.9129 21.9375 -9.16901 
1340 1 3 8.38432 6.90881 6.8948 0 1 1 0.00320828 0.00151505 0.013818 -2.83123 0.202921 -7.04259 
1339 1 3 7.56723 6.39616 8.33237 0 1 1 0.000329753 0.0323952 -0.0041324 -1.02071 -4.78891 11.7428 
7990 1 2 7.22435 8.1443 3.83805 1 0 0 0.00293093 -0.0040227 4.1229e-05 7.05887 -34.9694 -21.9409 
1344 1 3 4.65711 7.68439 8.16005 0 1 1 0.0137546 -0.0167528 0.00492866 -2.03412 -13.3096 3.76253 
6172 1 3 8.70148 2.96373 8.68646 0 1 0 0.0141929 0.00725216 0.00549991 -40.2215 16.7514 -9.22231 
3717 1 1 8.10007 2.65152 3.92495 1 0 0 -0.0016489 0.000706841 -0.00408575 -11.4717 23.3994 -11.7328 
3716 1 2 8.67548 2.11323 5.11388 1 0 0 0.00311137 0.000490401 -0.00228218 -18.5246 24.0874 16.8201 
1337 1 3 7.93871 9.00536 7.69505 0 1 1 -0.00123999 0.0206105 0.00440228 6.87522 0.623539 4.52582 
3671 1 3 2.45934 4.57544 1.55487 0 0 0 -0.0212523 -0.00341089 -0.00655946 -33.2756 -10.3549 -0.704851 
8926 1 3 2.66414 8.75395 5.43104 1 0 1 0.000637938 -0.0232535 0.0164324 -12.8187 -19.9196 -7.867 
3666 1 2 1.48797 3.97309 1.52683 0 0 0 -2.03179e-05 -0.00860167 -0.00244579 31.7171 1.26587 3.69411 
4621 1 3 3.80856 1.47924 3.50572 1 0 0 0.00208867 -0.00803842 -0.006553 -7.61962 -7.36072 -9.85048 
4609 1 1 1.30421 1.51866 7.57764 1 0 0 -0.000296516 0.00405551 -0.000834636 -30.8925 -10.9977 16.5252 
3727 1 3 8.0068 4.3891 2.68515 1 0 0 0.00810409 -0.0148884 -0.00816521 1.36467 -10.4812 7.75036 
3718 1 2 8.63997 3.91308 3.4548 1 0 0 -0.00202355 0.00503949 0.00187263 1.46603 24.5254 21.3767 
3726 1 3 8.74039 4.64614 4.3118 1 0 0 0.00721944 -0.0313643 0.00833362 -1.94609 -19.057 -18.1464 
7997 1 3 7.81878 9.01001 3.58758 1 0 0 -0.0026279 -0.0117299 0.0165758 2.40346 8.30922 -4.90311 
4611 1 2 1.38356 2.84063 7.00225 1 0 0 0.000528289 -0.00201664 0.000255604 1.80827 -26.7012 -3.19468 
3719 1 3 6.96807 1.6091 8.16823 1 0 0 0.0059169 -0.00942032 -0.0202205 4.39802 -3.83297 1.20892 
4617 1 3 1.43393 3.53376 7.77862 1 0 0 0.0106655 0.000294421 -0.0147196 -8.6211 20.7657 27.6774 
3356 1 3 4.26211 1.99089 8.80265 1 0 1 0.00155812 -0.00830128 0.0148006 -18.7561 -1.95912 42.0375 
1330 1 2 5.25161 7.57143 9.0778 0 1 1 -0.00155529 -0.00135722 0.00345078 7.63041 62.0125 -6.4576 
3713 1 1 6.63107 1.27227 6.12832 1 0 0 -0.000860033 -0.0033309 0.00416256 -10.8974 11.8384 -1.47449 
3680 1 3 1.73076 2.99879 1.98423 0 0 0 -0.0350682 -0.00414763 -0.00549743 -7.43898 4.46716 -1.81705 
7985 1 1 4.06469 7.42894 1.35984 1 0 0 -0.00221317 0.00292894 0.00318751 -26.0386 1.05176 -23.9328 
2013 1 3 11.0216 2.16735 3.22417 1 2 0 -0.02546 -0.0182571 -0.00695879 5.322 18.5363 24.1305 
6170 1 3 10.7019 3.73372 7.07298 0 1 0 -0.00673112 -0.0129855 0.00674475 -2.52779 8.21436 7.91893 
3725 1 3 9.61702 3.72231 3.03338 1 0 0 -0.00491337 0.033024 0.0200304 5.7887 1.46896 -3.14008 
8687 1 3 11.1959 7.45671 3.93339 1 0 1 -0.0101317 -0.00770447 -0.0020295 15.7121 -4.48319 -16.9091 
8678 1 2 10.5747 7.39774 4.78991 1 0 1 -0.00539247 0.0038012 -0.00234309 -37.5758 -1.85649 3.7315 
8686 1 3 10.9485 6.66315 5.52132 1 0 1 0.00510222 0.0106539 -0.0351337 -3.75181 4.33021 -1.43462 
8685 1 3 9.54308 7.20816 4.44007 1 0 1 -0.0356221 -0.0158679 -0.00596324 13.5645 -17.4555 5.82089 
5521 1 1 12.9928 4.09917 4.94335 0 1 0 -0.00460095 0.00305997 0.0012288 3.80039 -7.34655 -26.0941 
5522 1 2 12.7231 4.26166 3.49849 0 1 0 0.00376903 -0.00368954 -0.000185854 -17.2544 -0.97922 52.9717 
5528 1 3 12.8759 3.35206 2.93769 0 1 0 0.0180299 -0.000559531 0.00675704 -1.27616 -11.4433 0.391123 
5527 1 3 11.6627 4.57233 3.51156 0 1 0 -0.0030565 0.0051442 -0.0194253 9.25196 0.90932 -15.9769 
5536 1 3 13.3759 5.00669 3.10604 0 1 0 -0.0029728 0.0102501 0.0104432 7.51738 17.2991 -3.98107 
8674 1 2 14.2479 7.6773 7.38045 1 0 1 0.00630803 0.00171883 0.00537703 4.57614 -10.5513 23.723 
8680 1 3 14.6098 6.64952 7.39009 1 0 1 0.00593935 0.0375858 -0.00160314 7.12683 0.695372 -8.52497 
8688 1 3 13.6491 7.74086 8.29903 1 0 1 -0.0127388 0.00433919 -0.0106014 14.1169 8.13601 0.547844 
6168 1 3 11.4313 6.87707 8.76926 0 1 0 -0.00581362 -0.00682575 -0.00319542 -28.587 -25.5918 16.5733 
3590 1 2 15.3467 8.06874 2.96935 0 1 1 -0.0023873 -0.0054366 -0.000768031 -18.6385 4.7333 -20.7876 
3598 1 3 14.2632 8.1492 3.18369 0 1 1 0.0166789 -0.00417212 0.0252904 8.76957 -1.2402 -4.42957 
8673 1 1 13.29 7.83568 6.35523 1 0 1 0.00168282 0.00694905 -0.00286597 0.515828 6.95394 -18.5066 
3597 1 3 15.6368 7.00184 2.81741 0 1 1 0.0158925 0.00292063 -0.011792 -2.49013 12.7811 15.7038 
5523 1 2 14.243 3.4278 5.23928 0 1 0 0.00183355 -0.00645241 -0.00425293 26.1657 -21.6206 -37.0973 
5530 1 3 14.2938 2.39876 4.74689 0 1 0 -0.0107111 0.0105863 -0.0332358 -11.0294 23.8778 26.5359 
10234 2 7 10.0406 8.01111 1.63132 1 0 1 0.00560591 -0.0027342 -0.00490038 -1.55997 -20.1296 16.8887 
5529 1 3 15.0772 3.93242 4.72072 0 1 0 0.00653121 -6.63015e-06 0.00502958 -8.78646 8.00942 9.42782 
1308 1 3 16.2941 5.38025 8.4583 0 0 0 -0.00235985 -0.00664723 0.0019927 1.82239 -2.81841 2.63887 
3723 1 3 9.72759 1.93544 4.86718 1 0 0 -0.0148574 -0.00124975 -0.00572664 -3.96867 -12.5166 11.8766 
6161 1 1 9.9948 5.38818 8.19335 0 1 0 -0.000522856 -0.00462307 -7.75615e-05 3.17919 -7.73593 10.0623 
6163 1 2 10.5919 4.04753 8.13033 0 1 0 0.0022339 0.000983292 0.00382998 28.7491 -8.94669 4.56605 
5525 1 1 13.6656 2.48941 7.2831 0 1 0 -0.00496119 -0.00196547 0.00065962 -41.7946 -33.2977 18.6405 
5531 1 3 14.2052 4.35754 7.12417 0 1 0 0.00997093 -0.00208527 -0.0116006 -7.10573 44.8995 21.2427 
5524 1 2 14.4828 3.44765 6.75621 0 1 0 0.00157515 -0.000680758 -0.00909161 62.1624 -38.3164 -21.609 
8679 1 3 15.0872 8.42171 7.32619 1 0 1 0.0297627 -0.00701589 0.014239 -17.2747 -10.4569 0.937454 
3599 1 3 15.8864 8.62 3.72969 0 1 1 -0.00367585 -0.0253935 -0.0254484 4.40505 -10.1742 13.0664 
5532 1 3 15.5421 3.12948 7.06907 0 1 0 -0.00362436 0.00467101 0.0253425 -32.0874 23.1084 -16.584 
3589 1 1 15.6657 8.75434 1.72864 0 1 1 0.00512261 0.00103019 -0.000659012 25.982 -34.5783 5.36429 
6169 1 3 11.6562 4.10796 8.584 0 1 0 0.000544429 -0.00409106 -0.00521641 -40.6965 -5.64152 -16.691 
6171 1 3 10.0234 1.96362 8.5493 0 1 0 0.011804 -0.031213 -0.0242489 12.0393 -11.4342 -4.18091 
6164 1 2 9.71927 2.94237 8.84978 0 1 0 0.00280689 -0.000568664 -0.000246121 54.6367 29.2743 12.9323 
8682 1 3 11.7863 8.7478 7.5359 1 0 1 0.0187573 0.0132127 -0.018215 10.3476 -2.61629 -28.6911 
8677 1 1 10.4201 8.70164 5.33994 1 0 1 0.0046936 -0.00282363 -0.00210075 0.693053 6.34765 15.9366 
8675 1 2 12.4512 8.96674 6.64558 1 0 1 -0.00346383 0.00332835 0.00623479 -6.10066 3.79688 53.1856 
5526 1 2 13.7816 2.31564 8.70619 0 1 0 0.00140532 0.00355033 -0.000243012 -23.0181 -41.785 -0.911106 
5533 1 3 14.6727 1.78452 8.88347 0 1 0 -0.0140469 -0.0241775 0.0262508 32.2809 3.71791 7.0063 
8777 1 3 15.7257 1.76783 1.45352 0 1 1 0.0054332 -0.000566445 0.00373929 -2.29863 -27.9954 22.8715 
2006 1 2 10.9993 1.23761 2.74262 1 2 0 0.00231768 0.000729359 0.000372071 52.9144 -44.5989 -55.371 
8135 1 3 16.4696 5.50047 5.99246 0 0 0 0.00249304 0.00967451 -0.00950686 6.68923 -1.34813 -15.6166 
2015 1 3 11.7637 1.19586 1.86775 1 2 0 0.0142252 -0.0181081 -0.00715829 -31.0846 6.25551 34.4975 
8609 1 1 16.4051 4.77536 1.32949 1 0 1 0.000915398 0.00266508 -0.00264993 -1.73563 3.64497 -6.15812 
1548 1 3 16.5391 1.93242 4.41331 0 1 0 -0.0194683 -0.0181329 -0.00963641 30.4812 -6.3337 27.1847 
1541 1 1 16.8573 1.31334 6.39682 0 1 0 -0.000386551 -0.00447553 0.00744971 -2.83195 -1.28804 26.3374 
8620 1 3 14.2743 6.47543 1.12951 1 0 1 -0.0159931 -0.00661454 0.00888727 4.3054 -3.58423 -9.74677 
8920 1 3 1.88726 15.1002 5.39875 1 0 1 -0.00335525 0.017099 -0.00543122 5.31724 -1.10353 26.839 
8925 1 3 4.14048 9.64386 4.82845 1 0 1 0.0384908 0.00698398 -0.0199839 -17.2149 1.51403 10.2143 
8927 1 3 3.7683 9.45003 6.59431 1 0 1 0.0179494 -0.00961555 0.00159049 10.1505 -11.3025 -2.3 
8918 1 2 3.33337 9.55488 5.60176 1 0 1 0.00253264 0.00520365 0.00367997 18.9657 25.8771 12.2583 
3077 1 1 5.33863 12.765 6.36261 1 1 1 -0.00029689 0.00501913 -0.00131578 -6.33298 30.6791 14.0746 
3078 1 2 4.75299 13.6418 5.37698 1 1 1 0.00535827 -0.00475013 0.00400677 -15.1447 -17.338 15.4679 
3086 1 3 5.44646 14.2703 4.86553 1 1 1 0.0243289 0.00959514 0.0220086 17.8382 -0.371187 -13.327 
3087 1 3 4.11248 14.3224 5.90935 1 1 1 -0.0198527 -0.014753 0.0193124 -10.2245 4.04874 4.96738 
3076 1 2 6.37837 11.912 5.9762 1 1 1 0.00231665 0.00753332 0.0023173 7.95408 -17.5572 -67.0492 
3082 1 3 7.56608 13.5591 5.03384 1 1 1 0.0223609 0.00666775 -0.00577886 -0.217238 9.28614 -3.72493 
3075 1 2 7.71811 12.6824 5.64279 1 1 1 -0.00145574 -0.00322576 0.00238723 -13.8858 -23.7218 61.4516 
3084 1 3 6.05612 11.3645 5.01775 1 1 1 -0.015102 0.00212317 -0.0165711 7.96795 17.5799 32.5242 
3085 1 3 4.13651 12.9955 4.74906 1 1 1 -0.0257923 0.0169646 0.00966972 4.23151 6.52932 -10.7984 
3083 1 3 6.45048 11.1745 6.75482 1 1 1 -0.00846728 0.00354241 -0.0117489 11.3902 -6.95648 7.37791 
938 1 3 3.94838 12.8927 2.34768 1 -1 1 0.0078405 -0.0136649 0.0230408 10.1145 -2.27012 36.9722 
3081 1 3 8.3395 11.9854 5.17142 1 1 1 -0.0159424 -0.00387682 -0.0142031 16.3406 -15.1381 -26.2553 
8076 1 3 5.98163 15.5357 7.36646 1 -1 0 -0.0161501 -0.00705125 0.000839207 2.49158 0.88704 -18.801 
8917 1 1 2.58609 10.7691 5.78743 1 0 1 -0.000828778 0.00308608 0.006561 -5.13005 3.96706 -15.6723 
8913 1 1 1.76786 13.4099 4.19688 1 0 1 -0.000741835 -0.00606665 0.00466623 18.49 -36.1735 -7.12037 
8078 1 3 3.63952 15.8392 7.81444 1 -1 0 -0.00741269 -0.00352143 -0.0118292 -5.35896 -32.3264 -26.6005 
3073 1 1 8.46294 12.9706 6.89092 1 1 1 -0.00158488 0.00515634 0.00143331 -22.3952 7.00134 -11.7786 
8919 1 3 2.41787 15.3655 3.7239 1 0 1 -0.0115656 0.0115137 -0.0174974 -9.72502 -20.2257 14.9301 
2284 1 3 3.08369 11.7983 8.30771 1 0 0 -0.0203912 0.0115288 0.0119714 2.80197 16.4961 13.1924 
931 1 2 4.07409 12.9075 1.31456 1 -1 1 0.000860263 0.00603266 0.00117736 -39.337 32.9196 -26.5451 
1354 1 3 8.30788 15.5439 2.33686 1 0 1 -0.0250475 0.02029 -0.015812 -1.16984 11.855 6.40305 
1347 1 2 8.76021 16.3492 2.9536 1 0 1 -0.000235842 0.008115 0.00408512 7.17858 -31.7602 9.44202 
3079 1 3 8.05259 11.1958 8.14349 1 1 1 -0.00758048 -0.0108984 0.0222095 -14.8026 16.1578 -3.5959 
3074 1 2 8.8273 11.8755 7.78035 1 1 1 -0.00178852 0.00603104 0.00177396 32.6489 -8.77536 12.311 
8914 1 2 1.70964 14.8042 4.40191 1 0 1 -0.0009049 0.000637587 0.00257912 -24.1464 44.1433 -42.7834 
1356 1 3 7.55354 16.1133 4.78861 1 0 1 0.00459723 -0.00255941 0.0054142 14.9447 7.67756 -10.3985 
8070 1 2 3.82652 16.4497 8.62554 1 -1 0 -0.00377158 0.0044013 -0.000420492 -50.0669 32.7749 26.477 
8916 1 2 1.52519 11.0359 4.82213 1 0 1 -0.0035534 0.000296408 0.000674484 10.287 14.1701 -7.10396 
1348 1 2 7.75627 16.9043 4.02683 1 0 1 -0.00469596 -0.00209163 0.00111956 -12.1186 -51.7716 -9.56781 
1359 1 3 5.26772 16.7455 5.22823 1 0 1 0.00966237 -0.00583434 -0.0316334 15.6565 -13.0764 17.5714 
944 1 3 6.36159 14.1103 1.7523 1 -1 1 0.0081572 0.0114539 -0.011295 0.43051 10.6444 -6.19482 
2283 1 3 3.5357 13.4683 7.99009 1 0 0 0.0181061 -0.0188538 0.00538239 9.80646 9.28339 0.748225 
2276 1 2 3.15604 12.8223 8.76568 1 0 0 0.00692271 0.00935139 0.000995026 -14.4408 -22.723 3.85917 
936 1 3 6.29118 12.6129 2.68789 1 -1 1 -0.0056614 -0.00434841 0.00184053 -1.17057 0.521336 2.32382 
930 1 2 6.38957 13.0335 1.68642 1 -1 1 -0.00606494 -0.000954078 0.00620073 40.5535 -21.4921 7.15696 
4239 1 3 2.64948 16.8558 2.07133 1 -1 0 0.0136104 0.00287736 -0.00659627 -15.6554 10.3456 14.79 
8922 1 3 1.27365 12.6599 6.13674 1 0 1 -0.00105482 0.00588418 -0.00834366 -5.36635 9.16644 -15.9622 
8068 1 2 6.11797 15.9727 8.33255 1 -1 0 0.00605961 -0.00256156 -0.00304458 23.3101 -16.0268 5.69847 
8067 1 2 7.60406 16.4791 8.47885 1 -1 0 0.00347462 0.00102377 -0.00256819 -25.3408 -27.3002 -25.1623 
8073 1 3 8.27605 15.5959 8.34411 1 -1 0 -0.00456822 0.00794187 0.00349783 -7.00146 15.7641 -4.6216 
2287 1 3 5.77123 12.7543 8.94007 1 0 0 -0.00384452 0.0146005 0.0246008 2.75916 -4.14169 -11.3806 
8075 1 3 5.98204 15.0895 8.96278 1 -1 0 -0.0199559 0.0014804 -0.0132453 -5.7233 10.3261 13.4224 
935 1 3 7.34136 12.6332 1.24817 1 -1 1 -0.0145254 0.0443962 -0.00337916 -11.429 17.2237 8.93082 
8069 1 1 5.09057 16.9891 8.48457 1 -1 0 -0.004834 0.00282364 -0.00170831 40.3944 17.0573 7.42352 
8923 1 3 1.88332 10.9192 3.7863 1 0 1 -0.00308522 0.00316483 -0.030199 -0.440111 0.0504909 6.38117 
8096 1 3 5.96682 9.29786 1.24912 1 0 1 -0.00798111 0.00371572 0.0160436 12.0402 2.27051 -18.3133 
939 1 3 1.98635 12.1342 1.24259 1 -1 1 -0.0131212 -0.00676741 -0.00173162 5.09401 13.9251 -5.84554 
3706 1 3 11.7146 16.2338 2.43782 0 0 1 -0.0232112 0.00625539 -0.0207415 -26.0371 -15.1639 20.8189 
2495 1 3 9.51994 12.7873 2.74136 0 0 1 0.00301818 0.0145865 0.018731 2.91956 2.41781 -1.90346 
5119 1 3 13.28 10.7778 1.86703 0 -1 0 0.0183711 0.00842462 -0.00575498 10.9312 10.9301 -0.101148 
5110 1 2 14.0982 11.5301 1.80309 0 -1 0 0.00143648 -0.00255227 -0.00259214 17.8134 -0.641876 20.0031 
3080 1 3 9.37686 12.3107 8.63903 1 1 1 0.00834509 -0.00979292 0.00509774 -11.9731 -0.563457 -6.70063 
8681 1 3 13.0462 9.81034 7.03947 1 0 1 -0.00426915 0.0137179 0.00043789 4.60064 -6.42886 -15.3905 
8683 1 3 12.1312 9.20119 4.50685 1 0 1 0.00780986 0.0230413 0.0436818 23.5473 11.6526 -9.69209 
2494 1 3 11.2297 12.3095 2.8233 0 0 1 0.013229 -0.0278739 -0.0145578 7.99377 -7.08539 -9.50277 
5116 1 3 15.7583 11.0588 3.80744 0 -1 0 0.019872 0.00247908 -0.00459959 44.2799 -25.7468 -8.92991 
8676 1 2 11.6601 9.40462 5.44447 1 0 1 -0.00108526 0.00166557 -0.000498263 -21.341 -3.4597 -2.81898 
2493 1 3 10.7421 13.7484 3.6812 0 0 1 -0.00173633 0.00012756 0.0161695 -8.05742 -7.85798 -22.7952 
3088 1 3 9.55582 11.2046 7.322 1 1 1 -0.00985239 0.00364981 -0.00567362 0.205997 5.99958 -11.4924 
8684 1 3 11.4358 10.4429 5.60386 1 0 1 0.00837658 0.0179595 0.0426334 -2.52908 14.0191 -7.77346 
2486 1 2 10.5572 13.1501 2.74045 0 0 1 0.0030509 -0.00381972 0.00226797 -6.19742 14.5916 56.9217 
5115 1 3 14.2603 10.7303 4.61237 0 -1 0 -0.0138158 0.0196773 0.0195193 -10.4023 -11.9084 -1.99306 
3704 1 3 14.9285 14.6628 3.16121 0 0 1 -0.00663136 0.00820501 0.00131298 0.286938 -2.40118 -15.2517 
3698 1 2 14.0388 15.2771 3.2508 0 0 1 0.00558528 -0.00602526 0.00339182 -8.85025 23.838 20.6562 
9508 2 7 12.0138 14.0828 6.35464 1 0 1 -0.00239317 9.97565e-06 0.00132344 -6.55922 5.55252 13.4106 
9506 2 2 11.9999 15.0202 7.35294 1 0 1 -0.00224448 -0.00103264 -0.00486013 -11.1568 1.25433 31.2587 
3703 1 3 14.2864 15.914 4.11256 0 0 1 0.00475889 0.0255341 0.00221178 -8.65145 -10.5525 -8.7737 
3712 1 3 13.1621 14.6654 3.40293 0 0 1 -0.0213096 -0.00388899 -0.00880993 -4.28544 -8.3466 10.2874 
5108 1 2 14.9165 11.472 4.20162 0 -1 0 0.00583902 -0.00240318 -0.005504 -42.3153 27.83 -10.0577 
5109 1 1 14.2994 12.1983 3.0929 0 -1 0 0.00127078 0.00263029 0.00678554 -7.02356 -10.1092 0.835048 
3525 1 1 16.4332 16.4727 1.94619 0 0 1 0.00510979 -0.00374898 0.00480368 -27.6106 5.10525 -17.3242 
9507 2 7 13.1719 14.9635 7.9953 1 0 1 -0.00306178 0.00171511 0.000102879 8.96548 -7.66764 0.717593 
5107 1 2 15.2206 12.4892 5.2875 0 -1 0 0.00122896 -0.00370308 0.00126188 -10.9238 -12.7377 46.5751 
5113 1 3 14.4785 13.2592 5.3351 0 -1 0 0.0214405 0.0179618 0.0304647 -10.0039 13.2272 -13.058 
9505 2 6 10.4362 16.4337 6.2069 1 0 1 -0.0073126 -0.00236178 -0.00522089 24.676 12.6572 2.9784 
3697 1 1 13.7245 16.1614 2.14453 0 0 1 -0.00156181 0.00250351 0.0022827 37.9673 -9.29456 -44.0881 
5403 1 3 12.0997 11.1916 8.33254 -1 0 0 -0.00524295 0.00752516 0.00601269 -3.96998 -2.16652 35.7749 
3699 1 2 12.4759 16.8675 2.1146 0 0 1 0.00351649 0.000588962 0.00138002 27.6329 26.4424 10.1737 
9503 2 5 11.7634 16.6722 6.77238 1 0 1 0.0033138 0.00204068 0.000266904 -15.6121 -11.0634 -76.8046 
5114 1 3 15.1434 12.0759 6.3466 0 -1 0 0.00427632 -0.0227747 -0.0165489 12.9323 -2.05922 -32.9613 
5407 1 3 10.3283 9.223 9.00112 -1 0 0 0.00856735 0.00137358 -0.0027958 2.89648 -14.8671 -12.2976 
5105 1 1 16.5007 13.0526 5.03283 0 -1 0 8.7403e-05 -0.0004372 -0.00131434 8.49672 -14.5002 -11.9311 
1353 1 3 9.59502 15.8622 3.48733 1 0 1 -0.0168974 0.00823923 0.00481942 -7.73781 4.56905 0.615348 
5106 1 2 16.8414 14.0753 5.91934 0 -1 0 0.0044014 -0.00266038 0.00403857 -12.798 -16.0203 19.1082 
5120 1 3 16.6587 14.9562 5.34912 0 -1 0 0.0068522 -0.00367745 -0.0275259 5.45577 23.9346 0.540611 
9509 2 7 11.0428 14.7791 8.31884 1 0 1 -0.00229308 -0.00258684 3.05529e-05 15.2394 -14.4127 -21.6602 
2485 1 1 10.8001 13.9656 1.60498 0 0 1 0.000693793 0.00169068 -0.00450808 4.50721 -4.30098 -18.8079 
9502 2 4 12.8202 16.8939 5.62404 1 0 1 0.00337932 -0.0028084 -0.00772444 -38.8897 -1.84157 34.6616 
3530 1 3 15.5504 13.8158 1.34558 0 0 1 -0.00203382 -0.00717608 -0.0311587 4.99889 -5.44377 -25.8064 
5118 1 3 13.8354 12.3854 1.1808 0 -1 0 -0.00449622 0.00862834 -0.031514 -5.12613 -9.46279 -13.3157 
5117 1 3 15.0642 11.0692 1.44925 0 -1 0 -0.00586466 0.00199371 0.021326 -20.0645 11.0866 6.87921 
5112 1 3 16.1503 13.9884 6.78362 0 -1 0 0.0068919 -0.0108843 -0.0165289 12.8365 10.5111 -2.72441 
3533 1 3 16.9055 16.891 3.94197 0 0 1 0.00635256 -0.0114287 -0.00878814 -7.09689 -15.2103 8.89046 
1349 1 1 6.43533 17.0813 3.46064 1 0 1 0.00672327 -0.00338116 -0.00413424 -17.1926 14.6184 22.0306 
4238 1 3 4.04862 17.5196 1.3944 1 -1 0 -0.0192025 -0.0217427 -0.00151297 28.3928 6.61552 4.08066 
1346 1 2 8.46533 17.9767 1.15563 1 0 1 -0.00106747 0.00195321 -0.00603337 34.6329 16.8051 24.7766 
4230 1 2 3.07479 17.2046 1.15523 1 -1 0 -0.0104201 0.00265841 0.00479708 -24.0206 24.8004 17.4196 
8074 1 3 7.75125 17.2371 7.70563 1 -1 0 0.00657169 -0.0148222 -0.00961969 8.90681 2.37808 4.48929 
1357 1 3 4.44311 17.8068 4.1972 1 0 1 -0.0151448 0.0196488 -0.0134923 46.3546 -6.40894 -4.7822 
1350 1 2 5.51125 17.5254 4.54178 1 0 1 0.00689605 -0.000573399 0.000376812 -35.3962 36.5451 -37.3747 
1358 1 3 5.96903 18.4445 4.98365 1 0 1 -0.0137745 0.0113276 0.0275224 -10.2816 -16.9156 4.83804 
8079 1 3 3.04273 17.2534 8.54753 1 -1 0 -0.0058532 0.00552297 -0.0133847 19.8578 -11.4586 5.9926 
2751 1 3 3.81966 22.6716 8.1558 1 1 0 -0.0134725 0.00638544 0.00494012 -12.6679 11.1493 -2.33267 
8668 1 3 7.07982 22.7627 5.1758 1 0 0 0.0200425 0.00176937 -0.000681454 43.1724 26.0113 -1.15976 
1355 1 3 8.11814 17.7311 4.57358 1 0 1 -0.00251239 0.00317813 -0.00878083 8.81978 24.381 0.588537 
3916 1 3 2.53905 22.0799 6.05201 2 0 0 -0.0223918 -0.012685 0.00648498 6.51952 0.292567 -15.6457 
3909 1 1 3.10769 20.0716 6.13021 2 0 0 -0.00555105 -0.00187006 -0.000105142 -29.2865 10.0216 -15.219 
3908 1 2 3.03785 21.3567 5.37279 2 0 0 0.00287938 0.0048867 -0.000614792 -0.596947 -38.0272 17.8168 
3915 1 3 2.50606 21.1692 4.42656 2 0 0 0.00136732 -0.00273423 0.000251464 -4.65399 6.01622 9.04932 
3907 1 2 4.47604 21.7189 4.99151 2 0 0 0.00539496 -0.00252286 0.0016911 18.7048 -16.8529 -50.0371 
3914 1 3 5.15208 21.54 5.79384 2 0 0 0.016129 -0.0110194 0.0131016 7.89592 7.87238 20.6322 
3913 1 3 4.56276 22.7149 4.54227 2 0 0 -0.00169452 -0.0071072 -0.00264567 -3.31491 4.41704 13.0388 
3905 1 1 4.94824 20.8143 3.90151 2 0 0 -0.00305106 -0.00235668 -0.000386704 -17.6067 8.5785 27.1035 
3910 1 2 1.78288 19.4185 6.31045 2 0 0 -0.00353333 -0.00471324 0.00139791 48.903 2.9987 9.62085 
3917 1 3 1.3652 19.1901 5.37962 2 0 0 -0.00640268 0.0169141 -6.57934e-05 -20.9914 17.1862 -30.4594 
3919 1 3 1.92952 18.3781 6.60057 2 0 0 0.000250698 -0.00280248 0.00507322 3.14241 5.19589 25.4213 
2742 1 2 3.06595 23.4194 8.50109 1 1 0 0.00085647 -0.00200367 -0.00204484 -10.8461 -21.9474 6.78087 
8660 1 2 7.97915 23.4802 5.01476 1 0 0 -0.0028631 0.00507181 0.00104987 9.80898 -53.6497 24.5202 
8659 1 2 7.93503 23.984 3.57496 1 0 0 0.00154903 0.000754336 0.00427013 -41.5945 52.7367 -12.6867 
6149 1 1 7.93817 20.8288 7.27239 0 0 0 -0.000856764 -0.00392243 -0.00536242 -5.84302 -12.99 -19.4358 
6156 1 3 8.14019 19.2261 5.91665 0 0 0 0.0230624 -0.0175119 0.0108607 -11.5584 -6.79417 -4.48041 
6148 1 2 8.73971 19.7629 6.62151 0 0 0 0.00522607 -0.00302648 -0.0124844 -36.5409 22.1777 38.7681 
6159 1 3 6.06561 21.1716 8.11329 0 0 0 0.0164302 0.000317005 0.0151471 -18.223 19.7505 -2.90898 
8666 1 3 8.30915 23.2577 2.87588 1 0 0 -0.0331583 -0.0374173 0.000688918 9.12111 -7.9247 -5.437 
6150 1 2 6.68122 20.3484 7.87562 0 0 0 -0.00295786 0.00545797 -0.00599679 35.0191 -33.5255 19.209 
6157 1 3 6.9354 19.8864 8.87183 0 0 0 -0.00582548 0.00467006 0.005637 -4.04688 4.1114 -22.4178 
6155 1 3 9.00973 19.1188 7.45804 0 0 0 -0.00837963 0.00577725 0.00754301 8.68864 -7.00708 -5.89077 
2749 1 3 2.28494 23.6419 7.7427 1 1 0 -0.0191543 0.0176564 0.00242735 6.30512 -11.6614 7.69489 
8669 1 3 6.54936 24.0268 7.29427 1 0 0 -0.00850871 -0.014294 -0.0106676 -10.5942 -10.5917 10.9559 
3906 1 2 6.32986 20.9494 3.51702 2 0 0 -0.00186639 -0.000796288 0.00578793 -9.27822 34.2112 -4.54636 
3920 1 3 6.4818 20.2262 2.7619 2 0 0 -0.0112547 -0.0161119 -0.0151422 11.8054 -18.6206 -14.009 
3911 1 3 7.03957 20.8433 4.34846 2 0 0 -0.0035918 0.00704953 0.0152964 -6.60036 -6.13898 -0.422174 
8657 1 1 6.5252 24.3342 3.18544 1 0 0 -0.00408755 0.0040095 0.00414843 26.5363 -8.09086 9.7052 
3912 1 3 6.44025 21.9529 3.04727 2 0 0 0.0188879 0.0219259 -0.00640184 0.020259 -17.7014 6.9081 
8662 1 2 7.56343 24.3785 7.29 1 0 0 2.30231e-05 0.00845322 0.00162025 3.50279 0.487548 10.8525 
8661 1 1 7.84755 24.588 5.92151 1 0 0 0.00482734 0.00183126 0.00306341 9.45706 33.6253 -20.4574 
8667 1 3 9.03503 23.0073 5.20654 1 0 0 -0.0200316 -0.00474403 0.0112551 -52.6886 13.4039 -6.65491 
8671 1 3 8.28497 23.675 7.70144 1 0 0 -0.00988472 -0.0132844 -0.00157989 -3.17266 -7.98058 0.648297 
8663 1 3 5.34851 24.9962 1.58552 1 0 0 -0.015894 0.00436515 -0.00534971 -7.02483 3.22378 3.344 
2741 1 1 3.72313 24.658 8.73952 1 1 0 0.00167471 0.000435025 -0.00649647 17.6477 5.64038 28.068 
6158 1 3 6.17536 19.5832 7.24098 0 0 0 0.010444 -0.0331386 -0.0151861 4.14519 14.1144 4.4372 
887 1 3 3.22596 21.3732 1.84359 0 0 1 0.0058882 -0.0245348 -0.00876591 8.32368 1.42285 6.44704 
1352 1 3 7.64084 18.3889 1.72858 1 0 1 0.00713166 0.000279169 -0.0123854 2.72587 12.7099 3.66213 
8658 1 2 6.38132 24.7573 1.80627 1 0 0 0.00326748 -0.00643913 0.00329011 7.06469 -25.886 -18.1636 
8665 1 3 8.44731 24.9671 3.49456 1 0 0 -0.00832588 0.0220056 -0.0071743 8.50588 -17.5962 1.11959 
8664 1 3 6.66669 23.9002 1.14869 1 0 0 0.00244401 0.0281145 0.00564073 -2.01739 13.7765 12.0817 
890 1 3 1.18008 22.6653 1.68242 0 0 1 0.00588307 -0.0109451 0.0048411 10.1032 -30.8531 -46.9208 
3918 1 3 1.18499 20.0515 6.98591 2 0 0 -0.0157342 0.0154699 0.00645634 -5.50967 -11.858 -4.78971 
6726 1 2 11.9959 24.8933 4.62607 0 -2 0 0.000753763 -0.000294502 0.00388694 14.5606 -1.42808 52.8193 
2989 1 3 15.8255 23.7567 4.13474 1 0 0 0.0148036 0.00256748 0.0179724 6.9286 -18.8785 -17.8001 
2106 1 3 11.9523 24.966 1.85711 0 0 1 0.0112484 -0.00508877 -0.000640674 0.926617 11.7912 6.76186 
2099 1 2 11.4195 24.1058 1.4916 0 0 1 0.0045946 0.00630731 0.00623337 -3.05643 -6.74168 8.01758 
6145 1 1 9.71013 20.4049 4.5029 0 0 0 -0.000742161 0.00151223 0.00458491 -9.28946 6.05419 -11.9161 
6733 1 3 12.8564 24.8425 4.00496 0 -2 0 -0.00726221 -0.00691647 -0.00920596 12.7201 12.0081 -18.58 
1345 1 1 9.39775 17.3005 2.08348 1 0 1 0.00168658 0.00295318 -0.00623903 -29.1454 18.5193 -11.6057 
3705 1 3 12.6837 17.747 2.74198 0 0 1 -0.0190587 0.00156055 0.0115358 -19.7982 -6.12568 3.87276 
6147 1 2 9.94409 20.2888 5.90105 0 0 0 -0.00479524 -0.00112545 -0.0037667 18.7659 -35.6416 12.3435 
9893 2 5 15.3277 19.9715 1.35322 0 0 1 0.000122632 -0.00112026 -0.00066752 -39.2095 48.9024 5.77487 
6160 1 3 11.4646 19.7865 3.60153 0 0 0 0.0265734 0.00966387 0.00695872 12.8316 -21.5887 1.38124 
9512 2 6 15.1477 17.0977 6.02043 1 0 1 -0.00372806 -0.00150654 0.00199736 40.0311 -29.8681 7.34033 
9895 2 6 14.8749 18.6284 1.66311 0 0 1 0.00314193 0.00105509 -0.000571622 5.13369 9.43473 11.4001 
6152 1 3 10.6274 21.0984 2.80026 0 0 0 -0.0152844 0.0103166 -0.0354432 0.771439 0.522932 -0.561997 
6154 1 3 10.6352 19.4598 6.04746 0 0 0 -0.008259 0.0336062 -0.0205646 9.71377 2.83306 -6.05582 
9504 2 6 11.7583 17.6161 7.81127 1 0 1 -0.00627047 -0.00315569 -0.00354995 5.5175 20.0306 26.787 
9510 2 5 14.0921 18.0256 5.82896 1 0 1 0.00147465 0.000270128 -0.00334349 -20.5709 19.1652 9.08076 
9511 2 6 14.0122 18.671 4.54289 1 0 1 0.00368006 0.00245404 0.00462966 -1.03844 21.8158 -19.4399 
6151 1 3 11.4634 21.3979 4.35715 0 0 0 -0.00394247 0.0101585 -0.0194292 8.10286 1.83717 -6.04262 
6146 1 2 10.9071 20.6698 3.76487 0 0 0 0.00292861 -0.00130071 -0.0117819 -16.2806 26.0417 1.29632 
9515 2 7 14.3407 18.567 8.44125 1 0 1 -0.00409146 0.00134467 0.000813866 -5.66782 17.9025 -33.9704 
6153 1 3 10.3823 21.1471 6.35181 0 0 0 -0.0146453 -0.0015799 0.0201818 1.51574 21.0279 5.53775 
9898 2 7 13.7856 21.48 3.10393 0 0 1 -0.00267051 -0.00343374 -0.00035186 38.0232 -17.6728 -9.81254 
9896 2 2 15.087 21.3524 2.60507 0 0 1 -0.00871993 0.00195798 -0.000808473 4.03604 -9.85669 19.5301 
9514 2 7 13.2034 20.0973 7.24595 1 0 1 0.00731005 -0.00122228 -0.00686981 -2.6768 -9.37963 -1.61622 
9513 2 2 14.2212 19.2077 7.20028 1 0 1 -0.00581047 0.000757384 0.00372001 2.8989 -6.64648 38.7356 
9897 2 7 16.0328 21.2079 3.63483 0 0 1 0.00378315 0.00212463 0.00456178 -38.4954 2.8204 -22.1744 
9516 2 7 15.3327 19.9679 7.08346 1 0 1 -0.000587786 -0.000416384 0.00206008 -0.626526 -3.9902 -2.9298 
1719 1 3 13.8455 22.6236 7.38701 0 -1 1 -0.00512498 -0.0254384 0.0310394 -9.92439 13.4822 34.4422 
1714 1 2 13.7278 22.9057 8.49379 0 -1 1 0.00147784 0.0047564 0.00189072 15.4326 -30.7837 -50.3005 
1728 1 3 14.5356 22.3622 9.00307 0 -1 1 0.00371812 -0.0136376 -0.00277236 -4.39354 7.55299 7.16247 
1720 1 3 12.7569 22.6297 8.84769 0 -1 1 -0.0250353 0.010146 -0.00208751 -12.1657 -11.8717 6.60438 
6734 1 3 11.5081 23.9467 4.49828 0 -2 0 -0.00112533 -0.0141488 0.00594983 -7.52548 -12.8711 10.0265 
9899 2 7 15.3216 22.5918 2.09337 0 0 1 0.000170423 -0.00103442 -0.00615481 4.20635 -16.6655 -7.73778 
1713 1 1 13.8212 24.3005 8.63182 0 -1 1 -0.00137138 -0.000846915 -0.00589844 12.3678 8.42698 2.25458 
2105 1 3 11.2393 23.4214 2.30596 0 0 1 -0.00194405 0.0131912 0.00537805 10.475 -9.1335 6.41322 
2991 1 3 15.0963 23.9265 5.70144 1 0 0 -0.00580625 -0.00158451 0.0064643 -14.4775 -2.89407 5.71097 
2982 1 2 15.7733 24.3611 4.99198 1 0 0 0.00908891 0.00684857 0.00239449 20.7379 4.8331 16.2402 
269 1 3 1.65678 3.25711 14.347 1 1 0 -0.00399281 0.0148334 -0.0039207 6.41664 13.9121 10.9481 
3878 1 2 1.35912 8.81793 12.5757 1 0 0 -0.00357459 -0.00734011 0.000315395 10.4355 34.3539 -20.6761 
3474 1 2 4.65109 1.43411 14.3559 0 1 1 -0.00120655 -0.0054265 0.00509254 -16.5031 -10.8527 -65.8729 
3357 1 3 5.38575 4.10242 9.2889 1 0 1 0.0248889 -0.0126445 0.00775547 -9.22386 -10.877 -6.71884 
3476 1 2 2.85829 1.61278 16.8096 0 1 1 0.000912283 -0.00524908 0.00275754 22.9083 26.1394 -41.3717 
1336 1 3 5.71464 6.64354 9.23118 0 1 1 0.00356474 -0.0111808 0.000365499 -3.56969 -33.6093 3.28305 
271 1 3 1.75585 1.86227 13.3455 1 1 0 -0.007856 0.00676499 -0.0242993 9.22892 -16.9224 -4.56945 
1069 1 3 2.08299 6.85258 9.10482 1 0 0 -0.0177548 0.0276388 -0.00688052 -0.110593 -4.03249 -11.959 
1335 1 3 4.66129 7.88048 9.93171 0 1 1 0.0171286 0.0346746 0.0310007 -3.86486 -2.74952 6.88277 
3355 1 3 2.77613 2.62759 9.86415 1 0 1 -0.00351929 -0.00408647 -0.0199162 44.4327 -21.6962 -10.7082 